/*--------------------------------*- C++ -*----------------------------------*\
  =========                 |
  \\      /  F ield         | OpenFOAM: The Open Source CFD Toolbox
   \\    /   O peration     | Website:  https://openfoam.org
    \\  /    A nd           | Version:  6
     \\/     M anipulation  |
\*---------------------------------------------------------------------------*/
FoamFile
{
    version     2.0;
    format      ascii;
    class       volScalarField;
    location    "4";
    object      T;
}
// * * * * * * * * * * * * * * * * * * * * * * * * * * * * * * * * * * * * * //

dimensions      [0 0 0 1 0 0 0];

internalField   nonuniform List<scalar> 
5000
(
0.922836
0.922469
0.921732
0.920626
0.91915
0.917304
0.915087
0.9125
0.909543
0.906215
0.902516
0.898446
0.894005
0.889194
0.884013
0.878462
0.872544
0.866258
0.859608
0.852595
0.84522
0.837489
0.829403
0.820967
0.812185
0.803063
0.793607
0.783822
0.773716
0.763297
0.752572
0.741552
0.730247
0.718665
0.70682
0.694723
0.682386
0.669823
0.657048
0.644075
0.630919
0.617597
0.604124
0.590516
0.576791
0.562967
0.54906
0.53509
0.521073
0.507029
0.492976
0.478932
0.464916
0.450945
0.437038
0.423214
0.409489
0.395881
0.382408
0.369085
0.35593
0.342957
0.330181
0.317618
0.305281
0.293183
0.281338
0.269757
0.258451
0.24743
0.236706
0.226287
0.21618
0.206395
0.196939
0.187816
0.179035
0.170599
0.162513
0.154781
0.147407
0.140393
0.133743
0.127457
0.121539
0.115988
0.110807
0.105996
0.101555
0.0974852
0.093786
0.0904578
0.0875003
0.0849135
0.082697
0.0808508
0.0793745
0.0782679
0.0775307
0.0771626
0.922838
0.922471
0.921735
0.920628
0.919152
0.917306
0.91509
0.912503
0.909545
0.906217
0.902518
0.898448
0.894007
0.889196
0.884015
0.878465
0.872546
0.866261
0.85961
0.852597
0.845223
0.837491
0.829405
0.820969
0.812188
0.803065
0.793609
0.783824
0.773718
0.763299
0.752574
0.741554
0.730248
0.718667
0.706822
0.694724
0.682387
0.669824
0.657049
0.644076
0.63092
0.617598
0.604124
0.590517
0.576792
0.562967
0.549061
0.53509
0.521073
0.507029
0.492976
0.478932
0.464915
0.450944
0.437038
0.423213
0.409488
0.39588
0.382407
0.369084
0.355928
0.342955
0.33018
0.317616
0.305279
0.293182
0.281336
0.269755
0.258449
0.247429
0.236704
0.226284
0.216178
0.206393
0.196936
0.187814
0.179033
0.170596
0.16251
0.154779
0.147404
0.140391
0.13374
0.127455
0.121536
0.115986
0.110805
0.105994
0.101553
0.0974828
0.0937837
0.0904554
0.087498
0.0849111
0.0826947
0.0808485
0.0793723
0.0782658
0.0775289
0.0771616
0.922841
0.922474
0.921737
0.92063
0.919154
0.917308
0.915092
0.912505
0.909547
0.906219
0.90252
0.89845
0.894009
0.889198
0.884017
0.878467
0.872548
0.866263
0.859612
0.852599
0.845225
0.837493
0.829407
0.820971
0.812189
0.803067
0.793611
0.783826
0.77372
0.7633
0.752576
0.741556
0.73025
0.718668
0.706823
0.694726
0.682389
0.669825
0.65705
0.644077
0.630921
0.617598
0.604125
0.590517
0.576792
0.562968
0.549061
0.53509
0.521073
0.507029
0.492976
0.478932
0.464915
0.450944
0.437037
0.423212
0.409487
0.39588
0.382406
0.369083
0.355927
0.342954
0.330178
0.317615
0.305278
0.29318
0.281335
0.269753
0.258447
0.247427
0.236702
0.226283
0.216176
0.206391
0.196935
0.187812
0.179031
0.170594
0.162508
0.154777
0.147402
0.140389
0.133738
0.127453
0.121534
0.115984
0.110803
0.105992
0.101551
0.0974808
0.0937817
0.0904534
0.087496
0.0849092
0.0826928
0.0808466
0.0793704
0.078264
0.0775273
0.0771603
0.922843
0.922476
0.921739
0.920632
0.919156
0.91731
0.915094
0.912507
0.909549
0.906221
0.902522
0.898452
0.894011
0.8892
0.884019
0.878469
0.87255
0.866265
0.859614
0.852601
0.845227
0.837495
0.829409
0.820973
0.812191
0.803069
0.793612
0.783827
0.773721
0.763302
0.752577
0.741557
0.730251
0.71867
0.706824
0.694727
0.68239
0.669826
0.657051
0.644078
0.630922
0.617599
0.604126
0.590518
0.576793
0.562968
0.549061
0.53509
0.521073
0.507029
0.492976
0.478931
0.464914
0.450943
0.437037
0.423212
0.409487
0.395879
0.382405
0.369082
0.355926
0.342953
0.330177
0.317614
0.305277
0.293179
0.281333
0.269752
0.258446
0.247425
0.236701
0.226281
0.216175
0.20639
0.196933
0.187811
0.179029
0.170593
0.162507
0.154775
0.1474
0.140387
0.133736
0.127451
0.121532
0.115982
0.110801
0.10599
0.101549
0.0974789
0.0937797
0.0904515
0.0874941
0.0849073
0.0826909
0.0808448
0.0793687
0.0782624
0.0775258
0.0771588
0.922845
0.922478
0.921741
0.920634
0.919158
0.917312
0.915096
0.912509
0.909551
0.906223
0.902524
0.898454
0.894013
0.889202
0.884021
0.87847
0.872552
0.866267
0.859616
0.852602
0.845228
0.837497
0.829411
0.820975
0.812193
0.803071
0.793614
0.783829
0.773723
0.763303
0.752579
0.741559
0.730252
0.718671
0.706825
0.694728
0.682391
0.669827
0.657052
0.644079
0.630923
0.6176
0.604126
0.590518
0.576793
0.562968
0.549061
0.53509
0.521073
0.507029
0.492976
0.478931
0.464914
0.450943
0.437036
0.423211
0.409486
0.395878
0.382404
0.369081
0.355925
0.342952
0.330176
0.317613
0.305275
0.293178
0.281332
0.26975
0.258444
0.247424
0.236699
0.226279
0.216173
0.206388
0.196931
0.187809
0.179027
0.170591
0.162505
0.154773
0.147399
0.140385
0.133734
0.127449
0.121531
0.11598
0.110799
0.105988
0.101547
0.097477
0.0937779
0.0904497
0.0874923
0.0849055
0.0826892
0.0808431
0.079367
0.0782608
0.0775243
0.0771573
0.922846
0.922479
0.921743
0.920636
0.91916
0.917314
0.915097
0.912511
0.909553
0.906225
0.902526
0.898456
0.894015
0.889204
0.884023
0.878472
0.872554
0.866268
0.859618
0.852604
0.84523
0.837498
0.829412
0.820976
0.812194
0.803072
0.793615
0.78383
0.773724
0.763305
0.75258
0.74156
0.730254
0.718672
0.706827
0.694729
0.682392
0.669828
0.657053
0.644079
0.630923
0.6176
0.604127
0.590519
0.576793
0.562969
0.549062
0.53509
0.521073
0.507029
0.492976
0.478931
0.464914
0.450943
0.437036
0.423211
0.409485
0.395877
0.382403
0.36908
0.355924
0.342951
0.330175
0.317611
0.305274
0.293176
0.281331
0.269749
0.258443
0.247422
0.236698
0.226278
0.216171
0.206386
0.196929
0.187807
0.179025
0.170589
0.162503
0.154771
0.147397
0.140383
0.133733
0.127447
0.121529
0.115978
0.110797
0.105986
0.101545
0.0974753
0.0937762
0.090448
0.0874906
0.0849039
0.0826876
0.0808415
0.0793655
0.0782593
0.0775228
0.0771558
0.922848
0.922481
0.921744
0.920638
0.919162
0.917316
0.915099
0.912512
0.909555
0.906227
0.902527
0.898457
0.894017
0.889205
0.884024
0.878474
0.872555
0.86627
0.859619
0.852606
0.845232
0.8375
0.829414
0.820978
0.812196
0.803074
0.793617
0.783832
0.773726
0.763306
0.752581
0.741561
0.730255
0.718673
0.706828
0.69473
0.682393
0.669829
0.657054
0.64408
0.630924
0.617601
0.604127
0.590519
0.576794
0.562969
0.549062
0.53509
0.521073
0.507029
0.492975
0.478931
0.464913
0.450942
0.437035
0.42321
0.409485
0.395876
0.382403
0.369079
0.355923
0.34295
0.330174
0.31761
0.305273
0.293175
0.281329
0.269748
0.258441
0.247421
0.236696
0.226276
0.21617
0.206385
0.196928
0.187806
0.179024
0.170587
0.162501
0.15477
0.147395
0.140382
0.133731
0.127446
0.121527
0.115977
0.110796
0.105984
0.101544
0.0974737
0.0937746
0.0904464
0.087489
0.0849023
0.082686
0.08084
0.079364
0.0782578
0.0775213
0.0771544
0.92285
0.922483
0.921746
0.92064
0.919163
0.917317
0.915101
0.912514
0.909556
0.906228
0.902529
0.898459
0.894018
0.889207
0.884026
0.878475
0.872557
0.866272
0.859621
0.852607
0.845233
0.837501
0.829415
0.820979
0.812197
0.803075
0.793618
0.783833
0.773727
0.763307
0.752583
0.741562
0.730256
0.718674
0.706829
0.694731
0.682394
0.66983
0.657054
0.644081
0.630925
0.617602
0.604128
0.590519
0.576794
0.562969
0.549062
0.535091
0.521073
0.507028
0.492975
0.47893
0.464913
0.450942
0.437035
0.423209
0.409484
0.395876
0.382402
0.369079
0.355922
0.342949
0.330173
0.317609
0.305272
0.293174
0.281328
0.269746
0.25844
0.247419
0.236695
0.226275
0.216169
0.206383
0.196926
0.187804
0.179022
0.170586
0.1625
0.154768
0.147394
0.14038
0.133729
0.127444
0.121526
0.115975
0.110794
0.105983
0.101542
0.0974722
0.0937731
0.0904449
0.0874875
0.0849008
0.0826846
0.0808386
0.0793626
0.0782564
0.07752
0.0771531
0.922851
0.922484
0.921748
0.920641
0.919165
0.917319
0.915102
0.912515
0.909558
0.90623
0.902531
0.89846
0.89402
0.889208
0.884027
0.878477
0.872558
0.866273
0.859622
0.852609
0.845235
0.837503
0.829417
0.820981
0.812199
0.803076
0.79362
0.783834
0.773728
0.763308
0.752584
0.741563
0.730257
0.718675
0.70683
0.694732
0.682394
0.669831
0.657055
0.644081
0.630925
0.617602
0.604128
0.59052
0.576794
0.562969
0.549062
0.535091
0.521073
0.507028
0.492975
0.47893
0.464913
0.450941
0.437034
0.423209
0.409483
0.395875
0.382401
0.369078
0.355922
0.342948
0.330172
0.317608
0.305271
0.293173
0.281327
0.269745
0.258439
0.247418
0.236693
0.226274
0.216167
0.206382
0.196925
0.187803
0.179021
0.170585
0.162498
0.154767
0.147392
0.140379
0.133728
0.127443
0.121524
0.115974
0.110793
0.105981
0.101541
0.0974707
0.0937717
0.0904435
0.0874861
0.0848995
0.0826832
0.0808372
0.0793613
0.0782551
0.0775187
0.0771518
0.922853
0.922486
0.921749
0.920643
0.919166
0.91732
0.915104
0.912517
0.909559
0.906231
0.902532
0.898462
0.894021
0.88921
0.884029
0.878478
0.87256
0.866274
0.859624
0.85261
0.845236
0.837504
0.829418
0.820982
0.8122
0.803078
0.793621
0.783836
0.773729
0.76331
0.752585
0.741564
0.730258
0.718676
0.706831
0.694733
0.682395
0.669832
0.657056
0.644082
0.630926
0.617603
0.604128
0.59052
0.576795
0.562969
0.549062
0.535091
0.521073
0.507028
0.492975
0.47893
0.464913
0.450941
0.437034
0.423208
0.409483
0.395875
0.3824
0.369077
0.355921
0.342947
0.330171
0.317607
0.30527
0.293172
0.281326
0.269744
0.258438
0.247417
0.236692
0.226272
0.216166
0.206381
0.196924
0.187801
0.179019
0.170583
0.162497
0.154765
0.147391
0.140377
0.133727
0.127441
0.121523
0.115972
0.110791
0.10598
0.101539
0.0974694
0.0937704
0.0904422
0.0874849
0.0848982
0.0826819
0.080836
0.07936
0.0782539
0.0775174
0.0771506
0.922854
0.922487
0.92175
0.920644
0.919168
0.917322
0.915105
0.912518
0.909561
0.906232
0.902533
0.898463
0.894022
0.889211
0.88403
0.87848
0.872561
0.866276
0.859625
0.852611
0.845237
0.837505
0.829419
0.820983
0.812201
0.803079
0.793622
0.783837
0.77373
0.763311
0.752586
0.741565
0.730259
0.718677
0.706831
0.694733
0.682396
0.669832
0.657056
0.644083
0.630926
0.617603
0.604129
0.59052
0.576795
0.56297
0.549062
0.535091
0.521073
0.507028
0.492975
0.47893
0.464912
0.450941
0.437033
0.423208
0.409482
0.395874
0.3824
0.369076
0.35592
0.342946
0.33017
0.317606
0.305269
0.293171
0.281325
0.269743
0.258437
0.247416
0.236691
0.226271
0.216165
0.20638
0.196923
0.1878
0.179018
0.170582
0.162496
0.154764
0.14739
0.140376
0.133725
0.12744
0.121522
0.115971
0.11079
0.105979
0.101538
0.0974682
0.0937691
0.090441
0.0874836
0.084897
0.0826808
0.0808348
0.0793589
0.0782527
0.0775163
0.0771494
0.922855
0.922488
0.921752
0.920645
0.919169
0.917323
0.915106
0.91252
0.909562
0.906234
0.902535
0.898464
0.894024
0.889212
0.884031
0.878481
0.872562
0.866277
0.859626
0.852613
0.845238
0.837506
0.82942
0.820984
0.812202
0.80308
0.793623
0.783838
0.773731
0.763312
0.752587
0.741566
0.73026
0.718678
0.706832
0.694734
0.682397
0.669833
0.657057
0.644083
0.630927
0.617603
0.604129
0.590521
0.576795
0.56297
0.549062
0.535091
0.521073
0.507028
0.492975
0.47893
0.464912
0.45094
0.437033
0.423208
0.409482
0.395873
0.382399
0.369076
0.355919
0.342946
0.330169
0.317606
0.305268
0.29317
0.281324
0.269742
0.258436
0.247415
0.23669
0.22627
0.216164
0.206378
0.196921
0.187799
0.179017
0.170581
0.162495
0.154763
0.147389
0.140375
0.133724
0.127439
0.12152
0.11597
0.110789
0.105978
0.101537
0.0974671
0.093768
0.0904399
0.0874825
0.0848959
0.0826797
0.0808337
0.0793578
0.0782517
0.0775152
0.0771484
0.922856
0.922489
0.921753
0.920646
0.91917
0.917324
0.915108
0.912521
0.909563
0.906235
0.902536
0.898466
0.894025
0.889214
0.884032
0.878482
0.872563
0.866278
0.859627
0.852614
0.845239
0.837508
0.829421
0.820985
0.812203
0.803081
0.793624
0.783839
0.773732
0.763312
0.752588
0.741567
0.730261
0.718679
0.706833
0.694735
0.682397
0.669833
0.657057
0.644084
0.630927
0.617604
0.604129
0.590521
0.576795
0.56297
0.549062
0.535091
0.521073
0.507028
0.492975
0.478929
0.464912
0.45094
0.437033
0.423207
0.409481
0.395873
0.382399
0.369075
0.355919
0.342945
0.330169
0.317605
0.305267
0.293169
0.281323
0.269741
0.258435
0.247414
0.236689
0.226269
0.216163
0.206377
0.19692
0.187798
0.179016
0.17058
0.162494
0.154762
0.147387
0.140374
0.133723
0.127438
0.121519
0.115969
0.110788
0.105977
0.101536
0.097466
0.093767
0.0904388
0.0874815
0.0848949
0.0826787
0.0808327
0.0793568
0.0782507
0.0775143
0.0771474
0.922858
0.922491
0.921754
0.920647
0.919171
0.917325
0.915109
0.912522
0.909564
0.906236
0.902537
0.898467
0.894026
0.889215
0.884033
0.878483
0.872564
0.866279
0.859628
0.852615
0.84524
0.837508
0.829422
0.820986
0.812204
0.803082
0.793625
0.78384
0.773733
0.763313
0.752588
0.741568
0.730261
0.718679
0.706833
0.694735
0.682398
0.669834
0.657058
0.644084
0.630928
0.617604
0.60413
0.590521
0.576796
0.56297
0.549063
0.535091
0.521073
0.507028
0.492974
0.478929
0.464912
0.45094
0.437032
0.423207
0.409481
0.395873
0.382398
0.369075
0.355918
0.342944
0.330168
0.317604
0.305267
0.293168
0.281322
0.26974
0.258434
0.247413
0.236688
0.226268
0.216162
0.206377
0.196919
0.187797
0.179015
0.170579
0.162493
0.154761
0.147386
0.140373
0.133722
0.127437
0.121518
0.115968
0.110787
0.105976
0.101535
0.0974651
0.093766
0.0904379
0.0874806
0.084894
0.0826778
0.0808318
0.0793559
0.0782498
0.0775134
0.0771465
0.922859
0.922492
0.921755
0.920648
0.919172
0.917326
0.91511
0.912523
0.909565
0.906237
0.902538
0.898468
0.894027
0.889216
0.884034
0.878484
0.872565
0.86628
0.859629
0.852616
0.845241
0.837509
0.829423
0.820987
0.812205
0.803083
0.793626
0.78384
0.773734
0.763314
0.752589
0.741568
0.730262
0.71868
0.706834
0.694736
0.682398
0.669834
0.657058
0.644084
0.630928
0.617604
0.60413
0.590521
0.576796
0.56297
0.549063
0.535091
0.521073
0.507028
0.492974
0.478929
0.464911
0.45094
0.437032
0.423206
0.409481
0.395872
0.382398
0.369074
0.355918
0.342944
0.330167
0.317604
0.305266
0.293168
0.281322
0.26974
0.258433
0.247412
0.236688
0.226268
0.216161
0.206376
0.196919
0.187796
0.179014
0.170578
0.162492
0.15476
0.147386
0.140372
0.133721
0.127436
0.121517
0.115967
0.110786
0.105975
0.101534
0.0974642
0.0937652
0.0904371
0.0874798
0.0848931
0.0826769
0.080831
0.0793551
0.078249
0.0775126
0.0771457
0.922859
0.922492
0.921756
0.920649
0.919173
0.917327
0.91511
0.912524
0.909566
0.906238
0.902539
0.898469
0.894028
0.889216
0.884035
0.878485
0.872566
0.866281
0.85963
0.852616
0.845242
0.83751
0.829424
0.820988
0.812206
0.803083
0.793626
0.783841
0.773734
0.763315
0.75259
0.741569
0.730262
0.718681
0.706834
0.694736
0.682399
0.669835
0.657059
0.644085
0.630928
0.617605
0.60413
0.590522
0.576796
0.56297
0.549063
0.535091
0.521073
0.507028
0.492974
0.478929
0.464911
0.450939
0.437032
0.423206
0.40948
0.395872
0.382397
0.369074
0.355917
0.342943
0.330167
0.317603
0.305265
0.293167
0.281321
0.269739
0.258432
0.247412
0.236687
0.226267
0.21616
0.206375
0.196918
0.187795
0.179014
0.170577
0.162491
0.154759
0.147385
0.140371
0.133721
0.127435
0.121517
0.115966
0.110785
0.105974
0.101533
0.0974635
0.0937644
0.0904363
0.087479
0.0848924
0.0826762
0.0808303
0.0793544
0.0782483
0.0775119
0.077145
0.92286
0.922493
0.921756
0.92065
0.919174
0.917328
0.915111
0.912524
0.909567
0.906239
0.902539
0.898469
0.894028
0.889217
0.884036
0.878486
0.872567
0.866282
0.859631
0.852617
0.845243
0.837511
0.829425
0.820988
0.812206
0.803084
0.793627
0.783842
0.773735
0.763315
0.75259
0.74157
0.730263
0.718681
0.706835
0.694737
0.682399
0.669835
0.657059
0.644085
0.630928
0.617605
0.60413
0.590522
0.576796
0.56297
0.549063
0.535091
0.521073
0.507028
0.492974
0.478929
0.464911
0.450939
0.437031
0.423206
0.40948
0.395871
0.382397
0.369073
0.355917
0.342943
0.330166
0.317603
0.305265
0.293167
0.28132
0.269738
0.258432
0.247411
0.236686
0.226266
0.21616
0.206374
0.196917
0.187795
0.179013
0.170577
0.16249
0.154758
0.147384
0.14037
0.13372
0.127434
0.121516
0.115966
0.110785
0.105973
0.101533
0.0974628
0.0937638
0.0904357
0.0874784
0.0848918
0.0826756
0.0808296
0.0793537
0.0782477
0.0775112
0.0771444
0.922861
0.922494
0.921757
0.920651
0.919174
0.917328
0.915112
0.912525
0.909568
0.906239
0.90254
0.89847
0.894029
0.889218
0.884037
0.878486
0.872568
0.866282
0.859632
0.852618
0.845243
0.837511
0.829425
0.820989
0.812207
0.803085
0.793627
0.783842
0.773736
0.763316
0.752591
0.74157
0.730263
0.718681
0.706835
0.694737
0.682399
0.669835
0.657059
0.644085
0.630929
0.617605
0.604131
0.590522
0.576796
0.56297
0.549063
0.535091
0.521073
0.507028
0.492974
0.478929
0.464911
0.450939
0.437031
0.423206
0.40948
0.395871
0.382397
0.369073
0.355916
0.342942
0.330166
0.317602
0.305264
0.293166
0.28132
0.269738
0.258431
0.247411
0.236686
0.226266
0.216159
0.206374
0.196917
0.187794
0.179012
0.170576
0.16249
0.154758
0.147384
0.14037
0.133719
0.127434
0.121515
0.115965
0.110784
0.105973
0.101532
0.0974622
0.0937632
0.0904351
0.0874778
0.0848912
0.082675
0.0808291
0.0793532
0.0782471
0.0775107
0.0771438
0.922861
0.922494
0.921758
0.920651
0.919175
0.917329
0.915112
0.912526
0.909568
0.90624
0.902541
0.898471
0.89403
0.889218
0.884037
0.878487
0.872568
0.866283
0.859632
0.852618
0.845244
0.837512
0.829426
0.820989
0.812207
0.803085
0.793628
0.783843
0.773736
0.763316
0.752591
0.74157
0.730264
0.718682
0.706836
0.694737
0.6824
0.669836
0.657059
0.644085
0.630929
0.617605
0.604131
0.590522
0.576796
0.56297
0.549063
0.535091
0.521073
0.507028
0.492974
0.478928
0.464911
0.450939
0.437031
0.423205
0.409479
0.395871
0.382396
0.369073
0.355916
0.342942
0.330166
0.317602
0.305264
0.293166
0.281319
0.269737
0.258431
0.24741
0.236685
0.226265
0.216159
0.206373
0.196916
0.187794
0.179012
0.170575
0.162489
0.154757
0.147383
0.140369
0.133719
0.127433
0.121515
0.115965
0.110783
0.105972
0.101532
0.0974618
0.0937627
0.0904346
0.0874774
0.0848907
0.0826746
0.0808287
0.0793528
0.0782467
0.0775103
0.0771434
0.922862
0.922495
0.921758
0.920652
0.919176
0.917329
0.915113
0.912526
0.909569
0.90624
0.902541
0.898471
0.89403
0.889219
0.884038
0.878487
0.872569
0.866283
0.859633
0.852619
0.845244
0.837512
0.829426
0.82099
0.812208
0.803085
0.793628
0.783843
0.773736
0.763316
0.752591
0.741571
0.730264
0.718682
0.706836
0.694738
0.6824
0.669836
0.65706
0.644086
0.630929
0.617605
0.604131
0.590522
0.576796
0.56297
0.549063
0.535091
0.521073
0.507028
0.492974
0.478928
0.464911
0.450939
0.437031
0.423205
0.409479
0.395871
0.382396
0.369072
0.355916
0.342942
0.330165
0.317601
0.305264
0.293165
0.281319
0.269737
0.25843
0.24741
0.236685
0.226265
0.216158
0.206373
0.196916
0.187793
0.179011
0.170575
0.162489
0.154757
0.147383
0.140369
0.133718
0.127433
0.121514
0.115964
0.110783
0.105972
0.101531
0.0974614
0.0937624
0.0904343
0.087477
0.0848904
0.0826742
0.0808283
0.0793524
0.0782463
0.0775099
0.077143
0.922862
0.922495
0.921759
0.920652
0.919176
0.91733
0.915113
0.912526
0.909569
0.906241
0.902541
0.898471
0.894031
0.889219
0.884038
0.878488
0.872569
0.866284
0.859633
0.852619
0.845245
0.837513
0.829427
0.82099
0.812208
0.803086
0.793629
0.783843
0.773737
0.763317
0.752592
0.741571
0.730264
0.718682
0.706836
0.694738
0.6824
0.669836
0.65706
0.644086
0.630929
0.617605
0.604131
0.590522
0.576796
0.56297
0.549063
0.535091
0.521073
0.507028
0.492974
0.478928
0.46491
0.450938
0.437031
0.423205
0.409479
0.39587
0.382396
0.369072
0.355915
0.342941
0.330165
0.317601
0.305263
0.293165
0.281319
0.269737
0.25843
0.247409
0.236684
0.226264
0.216158
0.206372
0.196915
0.187793
0.179011
0.170575
0.162489
0.154757
0.147382
0.140369
0.133718
0.127433
0.121514
0.115964
0.110783
0.105972
0.101531
0.0974611
0.0937621
0.090434
0.0874767
0.0848901
0.082674
0.080828
0.0793521
0.0782461
0.0775096
0.0771428
0.922863
0.922496
0.921759
0.920653
0.919176
0.91733
0.915114
0.912527
0.909569
0.906241
0.902542
0.898472
0.894031
0.88922
0.884038
0.878488
0.872569
0.866284
0.859633
0.852619
0.845245
0.837513
0.829427
0.82099
0.812208
0.803086
0.793629
0.783843
0.773737
0.763317
0.752592
0.741571
0.730264
0.718682
0.706836
0.694738
0.6824
0.669836
0.65706
0.644086
0.630929
0.617605
0.604131
0.590522
0.576796
0.56297
0.549063
0.535091
0.521073
0.507027
0.492974
0.478928
0.46491
0.450938
0.437031
0.423205
0.409479
0.39587
0.382396
0.369072
0.355915
0.342941
0.330165
0.317601
0.305263
0.293165
0.281319
0.269737
0.25843
0.247409
0.236684
0.226264
0.216158
0.206372
0.196915
0.187793
0.179011
0.170574
0.162488
0.154756
0.147382
0.140368
0.133718
0.127432
0.121514
0.115964
0.110783
0.105971
0.101531
0.0974609
0.0937619
0.0904338
0.0874765
0.0848899
0.0826738
0.0808279
0.079352
0.0782459
0.0775095
0.0771426
0.922863
0.922496
0.921759
0.920653
0.919177
0.91733
0.915114
0.912527
0.90957
0.906241
0.902542
0.898472
0.894031
0.88922
0.884039
0.878488
0.872569
0.866284
0.859633
0.85262
0.845245
0.837513
0.829427
0.820991
0.812209
0.803086
0.793629
0.783843
0.773737
0.763317
0.752592
0.741571
0.730264
0.718682
0.706836
0.694738
0.6824
0.669836
0.65706
0.644086
0.630929
0.617605
0.604131
0.590522
0.576796
0.56297
0.549063
0.535091
0.521073
0.507027
0.492973
0.478928
0.46491
0.450938
0.43703
0.423205
0.409479
0.39587
0.382396
0.369072
0.355915
0.342941
0.330165
0.317601
0.305263
0.293165
0.281318
0.269736
0.25843
0.247409
0.236684
0.226264
0.216157
0.206372
0.196915
0.187793
0.179011
0.170574
0.162488
0.154756
0.147382
0.140368
0.133718
0.127432
0.121514
0.115964
0.110782
0.105971
0.101531
0.0974608
0.0937618
0.0904337
0.0874765
0.0848898
0.0826737
0.0808278
0.0793519
0.0782458
0.0775094
0.0771425
0.922863
0.922496
0.921759
0.920653
0.919177
0.91733
0.915114
0.912527
0.90957
0.906241
0.902542
0.898472
0.894031
0.88922
0.884039
0.878488
0.87257
0.866284
0.859633
0.85262
0.845245
0.837513
0.829427
0.820991
0.812209
0.803086
0.793629
0.783844
0.773737
0.763317
0.752592
0.741571
0.730264
0.718682
0.706836
0.694738
0.6824
0.669836
0.65706
0.644086
0.630929
0.617605
0.604131
0.590522
0.576796
0.56297
0.549063
0.535091
0.521073
0.507027
0.492973
0.478928
0.46491
0.450938
0.43703
0.423205
0.409479
0.39587
0.382395
0.369072
0.355915
0.342941
0.330165
0.317601
0.305263
0.293165
0.281318
0.269736
0.25843
0.247409
0.236684
0.226264
0.216157
0.206372
0.196915
0.187793
0.179011
0.170574
0.162488
0.154756
0.147382
0.140368
0.133718
0.127432
0.121514
0.115964
0.110782
0.105971
0.101531
0.0974608
0.0937618
0.0904337
0.0874765
0.0848899
0.0826737
0.0808278
0.0793519
0.0782458
0.0775094
0.0771426
0.922863
0.922496
0.921759
0.920653
0.919177
0.91733
0.915114
0.912527
0.90957
0.906241
0.902542
0.898472
0.894031
0.88922
0.884039
0.878488
0.87257
0.866284
0.859633
0.85262
0.845245
0.837513
0.829427
0.820991
0.812209
0.803086
0.793629
0.783843
0.773737
0.763317
0.752592
0.741571
0.730264
0.718682
0.706836
0.694738
0.6824
0.669836
0.65706
0.644086
0.630929
0.617605
0.604131
0.590522
0.576796
0.56297
0.549062
0.53509
0.521073
0.507027
0.492973
0.478928
0.46491
0.450938
0.43703
0.423205
0.409479
0.39587
0.382395
0.369072
0.355915
0.342941
0.330165
0.317601
0.305263
0.293164
0.281318
0.269736
0.25843
0.247409
0.236684
0.226264
0.216157
0.206372
0.196915
0.187793
0.179011
0.170574
0.162488
0.154756
0.147382
0.140368
0.133718
0.127432
0.121514
0.115964
0.110783
0.105971
0.101531
0.0974609
0.0937619
0.0904338
0.0874766
0.08489
0.0826738
0.0808279
0.079352
0.0782459
0.0775095
0.0771427
0.922863
0.922496
0.921759
0.920653
0.919177
0.91733
0.915114
0.912527
0.90957
0.906241
0.902542
0.898472
0.894031
0.88922
0.884039
0.878488
0.872569
0.866284
0.859633
0.852619
0.845245
0.837513
0.829427
0.82099
0.812208
0.803086
0.793629
0.783843
0.773737
0.763317
0.752592
0.741571
0.730264
0.718682
0.706836
0.694738
0.6824
0.669836
0.657059
0.644085
0.630929
0.617605
0.60413
0.590522
0.576796
0.56297
0.549062
0.53509
0.521073
0.507027
0.492973
0.478928
0.46491
0.450938
0.43703
0.423204
0.409479
0.39587
0.382395
0.369072
0.355915
0.342941
0.330165
0.317601
0.305263
0.293165
0.281318
0.269736
0.25843
0.247409
0.236684
0.226264
0.216158
0.206372
0.196915
0.187793
0.179011
0.170574
0.162488
0.154756
0.147382
0.140368
0.133718
0.127433
0.121514
0.115964
0.110783
0.105972
0.101531
0.0974611
0.0937621
0.090434
0.0874768
0.0848902
0.082674
0.0808281
0.0793522
0.0782461
0.0775097
0.0771429
0.922863
0.922496
0.921759
0.920653
0.919176
0.91733
0.915114
0.912527
0.909569
0.906241
0.902542
0.898472
0.894031
0.88922
0.884038
0.878488
0.872569
0.866284
0.859633
0.852619
0.845245
0.837513
0.829427
0.82099
0.812208
0.803086
0.793629
0.783843
0.773736
0.763316
0.752591
0.741571
0.730264
0.718682
0.706836
0.694737
0.6824
0.669836
0.657059
0.644085
0.630929
0.617605
0.60413
0.590522
0.576796
0.56297
0.549062
0.53509
0.521072
0.507027
0.492973
0.478928
0.46491
0.450938
0.43703
0.423204
0.409479
0.39587
0.382395
0.369072
0.355915
0.342941
0.330165
0.317601
0.305263
0.293165
0.281319
0.269736
0.25843
0.247409
0.236684
0.226264
0.216158
0.206372
0.196915
0.187793
0.179011
0.170575
0.162489
0.154757
0.147382
0.140369
0.133718
0.127433
0.121514
0.115964
0.110783
0.105972
0.101531
0.0974614
0.0937624
0.0904343
0.0874771
0.0848905
0.0826743
0.0808284
0.0793525
0.0782464
0.07751
0.0771432
0.922863
0.922496
0.921759
0.920652
0.919176
0.91733
0.915113
0.912527
0.909569
0.906241
0.902542
0.898471
0.894031
0.889219
0.884038
0.878488
0.872569
0.866283
0.859633
0.852619
0.845245
0.837512
0.829426
0.82099
0.812208
0.803085
0.793628
0.783843
0.773736
0.763316
0.752591
0.74157
0.730264
0.718682
0.706835
0.694737
0.682399
0.669835
0.657059
0.644085
0.630928
0.617605
0.60413
0.590521
0.576795
0.56297
0.549062
0.53509
0.521072
0.507027
0.492973
0.478928
0.46491
0.450938
0.43703
0.423204
0.409479
0.39587
0.382395
0.369072
0.355915
0.342941
0.330165
0.317601
0.305263
0.293165
0.281319
0.269737
0.25843
0.247409
0.236684
0.226265
0.216158
0.206373
0.196916
0.187793
0.179011
0.170575
0.162489
0.154757
0.147383
0.140369
0.133719
0.127433
0.121515
0.115964
0.110783
0.105972
0.101532
0.0974618
0.0937628
0.0904347
0.0874775
0.0848909
0.0826747
0.0808288
0.0793529
0.0782468
0.0775104
0.0771436
0.922862
0.922495
0.921758
0.920652
0.919176
0.91733
0.915113
0.912526
0.909569
0.90624
0.902541
0.898471
0.89403
0.889219
0.884038
0.878487
0.872569
0.866283
0.859632
0.852619
0.845244
0.837512
0.829426
0.820989
0.812207
0.803085
0.793628
0.783842
0.773736
0.763316
0.752591
0.74157
0.730263
0.718681
0.706835
0.694737
0.682399
0.669835
0.657059
0.644085
0.630928
0.617604
0.60413
0.590521
0.576795
0.56297
0.549062
0.53509
0.521072
0.507027
0.492973
0.478928
0.46491
0.450938
0.43703
0.423205
0.409479
0.39587
0.382396
0.369072
0.355915
0.342941
0.330165
0.317601
0.305263
0.293165
0.281319
0.269737
0.25843
0.24741
0.236685
0.226265
0.216158
0.206373
0.196916
0.187794
0.179012
0.170575
0.162489
0.154757
0.147383
0.14037
0.133719
0.127434
0.121515
0.115965
0.110784
0.105973
0.101532
0.0974622
0.0937633
0.0904352
0.0874779
0.0848913
0.0826752
0.0808293
0.0793534
0.0782473
0.0775109
0.0771441
0.922862
0.922495
0.921758
0.920652
0.919175
0.917329
0.915113
0.912526
0.909568
0.90624
0.902541
0.898471
0.89403
0.889218
0.884037
0.878487
0.872568
0.866283
0.859632
0.852618
0.845244
0.837512
0.829425
0.820989
0.812207
0.803084
0.793627
0.783842
0.773735
0.763315
0.75259
0.74157
0.730263
0.718681
0.706835
0.694736
0.682399
0.669835
0.657058
0.644084
0.630928
0.617604
0.60413
0.590521
0.576795
0.562969
0.549062
0.53509
0.521072
0.507027
0.492973
0.478928
0.46491
0.450938
0.43703
0.423205
0.409479
0.39587
0.382396
0.369072
0.355915
0.342941
0.330165
0.317601
0.305264
0.293165
0.281319
0.269737
0.258431
0.24741
0.236685
0.226265
0.216159
0.206373
0.196916
0.187794
0.179012
0.170576
0.16249
0.154758
0.147384
0.14037
0.13372
0.127434
0.121516
0.115965
0.110784
0.105973
0.101533
0.0974628
0.0937638
0.0904358
0.0874785
0.0848919
0.0826758
0.0808299
0.079354
0.0782479
0.0775115
0.0771447
0.922861
0.922494
0.921757
0.920651
0.919175
0.917329
0.915112
0.912525
0.909568
0.906239
0.90254
0.89847
0.894029
0.889218
0.884037
0.878486
0.872567
0.866282
0.859631
0.852617
0.845243
0.837511
0.829425
0.820988
0.812206
0.803084
0.793627
0.783841
0.773735
0.763315
0.75259
0.741569
0.730262
0.71868
0.706834
0.694736
0.682398
0.669834
0.657058
0.644084
0.630927
0.617604
0.604129
0.590521
0.576795
0.562969
0.549061
0.53509
0.521072
0.507027
0.492973
0.478927
0.46491
0.450938
0.43703
0.423205
0.409479
0.39587
0.382396
0.369072
0.355916
0.342942
0.330166
0.317602
0.305264
0.293166
0.28132
0.269738
0.258431
0.247411
0.236686
0.226266
0.216159
0.206374
0.196917
0.187795
0.179013
0.170576
0.16249
0.154759
0.147384
0.140371
0.13372
0.127435
0.121516
0.115966
0.110785
0.105974
0.101533
0.0974635
0.0937645
0.0904364
0.0874792
0.0848926
0.0826765
0.0808306
0.0793547
0.0782486
0.0775122
0.0771453
0.922861
0.922494
0.921757
0.92065
0.919174
0.917328
0.915111
0.912525
0.909567
0.906239
0.902539
0.898469
0.894028
0.889217
0.884036
0.878485
0.872567
0.866281
0.859631
0.852617
0.845242
0.83751
0.829424
0.820988
0.812206
0.803083
0.793626
0.783841
0.773734
0.763314
0.752589
0.741568
0.730262
0.71868
0.706834
0.694735
0.682398
0.669834
0.657058
0.644084
0.630927
0.617603
0.604129
0.59052
0.576795
0.562969
0.549061
0.53509
0.521072
0.507026
0.492973
0.478927
0.46491
0.450938
0.43703
0.423205
0.409479
0.39587
0.382396
0.369073
0.355916
0.342942
0.330166
0.317602
0.305264
0.293166
0.28132
0.269738
0.258432
0.247411
0.236686
0.226266
0.21616
0.206375
0.196918
0.187795
0.179013
0.170577
0.162491
0.154759
0.147385
0.140371
0.133721
0.127436
0.121517
0.115967
0.110786
0.105975
0.101534
0.0974643
0.0937653
0.0904372
0.08748
0.0848934
0.0826772
0.0808313
0.0793555
0.0782494
0.077513
0.0771461
0.92286
0.922493
0.921756
0.92065
0.919173
0.917327
0.915111
0.912524
0.909566
0.906238
0.902539
0.898469
0.894028
0.889216
0.884035
0.878485
0.872566
0.86628
0.85963
0.852616
0.845242
0.83751
0.829423
0.820987
0.812205
0.803082
0.793625
0.78384
0.773733
0.763313
0.752588
0.741568
0.730261
0.718679
0.706833
0.694735
0.682397
0.669833
0.657057
0.644083
0.630927
0.617603
0.604129
0.59052
0.576794
0.562969
0.549061
0.535089
0.521072
0.507026
0.492973
0.478927
0.46491
0.450938
0.43703
0.423205
0.409479
0.395871
0.382396
0.369073