/*--------------------------------*- C++ -*----------------------------------*\
  =========                 |
  \\      /  F ield         | OpenFOAM: The Open Source CFD Toolbox
   \\    /   O peration     | Website:  https://openfoam.org
    \\  /    A nd           | Version:  6
     \\/     M anipulation  |
\*---------------------------------------------------------------------------*/
FoamFile
{
    version     2.0;
    format      ascii;
    class       volScalarField;
    location    "11";
    object      T;
}
// * * * * * * * * * * * * * * * * * * * * * * * * * * * * * * * * * * * * * //

dimensions      [0 0 0 1 0 0 0];

internalField   nonuniform List<scalar> 
5000
(
0.714959
0.714748
0.714326
0.713691
0.712846
0.711791
0.710528
0.709056
0.707378
0.705495
0.70341
0.701124
0.698639
0.695958
0.693084
0.69002
0.686767
0.683331
0.679713
0.675918
0.67195
0.667811
0.663507
0.659042
0.654419
0.649644
0.644721
0.639655
0.634451
0.629115
0.623651
0.618064
0.612362
0.606548
0.600629
0.59461
0.588498
0.582298
0.576018
0.569662
0.563237
0.55675
0.550206
0.543613
0.536977
0.530304
0.523602
0.516876
0.510133
0.503381
0.496625
0.489872
0.48313
0.476404
0.469701
0.463029
0.456393
0.4498
0.443256
0.436769
0.430344
0.423988
0.417708
0.411508
0.405396
0.399378
0.393459
0.387645
0.381942
0.376356
0.370892
0.365555
0.360351
0.355286
0.350363
0.345588
0.340965
0.3365
0.332196
0.328057
0.324089
0.320294
0.316677
0.31324
0.309988
0.306923
0.304049
0.301369
0.298884
0.296598
0.294513
0.29263
0.290952
0.28948
0.288217
0.287162
0.286317
0.285682
0.285259
0.285048
0.71496
0.71475
0.714327
0.713693
0.712848
0.711793
0.710529
0.709057
0.707379
0.705496
0.703411
0.701125
0.69864
0.695959
0.693085
0.690021
0.686768
0.683332
0.679714
0.675919
0.671951
0.667812
0.663508
0.659042
0.65442
0.649645
0.644722
0.639656
0.634452
0.629116
0.623651
0.618065
0.612362
0.606548
0.600629
0.594611
0.588498
0.582299
0.576018
0.569662
0.563237
0.55675
0.550206
0.543613
0.536977
0.530305
0.523602
0.516876
0.510133
0.503381
0.496625
0.489872
0.48313
0.476404
0.469701
0.463029
0.456392
0.449799
0.443256
0.436769
0.430344
0.423988
0.417707
0.411508
0.405396
0.399377
0.393458
0.387644
0.381941
0.376355
0.370891
0.365554
0.360351
0.355285
0.350362
0.345587
0.340964
0.336499
0.332195
0.328056
0.324088
0.320293
0.316675
0.313239
0.309987
0.306922
0.304048
0.301367
0.298883
0.296597
0.294511
0.292629
0.290951
0.289479
0.288215
0.28716
0.286315
0.285681
0.285258
0.285047
0.714961
0.714751
0.714328
0.713694
0.712849
0.711794
0.71053
0.709058
0.70738
0.705498
0.703412
0.701126
0.698641
0.695961
0.693086
0.690022
0.686769
0.683333
0.679715
0.67592
0.671952
0.667813
0.663509
0.659043
0.654421
0.649646
0.644723
0.639657
0.634453
0.629116
0.623652
0.618066
0.612363
0.606549
0.60063
0.594611
0.588499
0.582299
0.576018
0.569662
0.563237
0.55675
0.550207
0.543614
0.536977
0.530305
0.523602
0.516876
0.510133
0.503381
0.496625
0.489872
0.48313
0.476404
0.469701
0.463028
0.456392
0.449799
0.443256
0.436768
0.430343
0.423987
0.417707
0.411507
0.405395
0.399376
0.393457
0.387643
0.38194
0.376354
0.37089
0.365553
0.36035
0.355284
0.350361
0.345586
0.340963
0.336498
0.332194
0.328055
0.324087
0.320292
0.316674
0.313238
0.309986
0.306921
0.304047
0.301366
0.298882
0.296596
0.29451
0.292628
0.29095
0.289478
0.288214
0.287159
0.286314
0.28568
0.285257
0.285047
0.714963
0.714752
0.714329
0.713695
0.71285
0.711795
0.710531
0.709059
0.707381
0.705499
0.703413
0.701127
0.698642
0.695962
0.693087
0.690023
0.68677
0.683334
0.679716
0.675921
0.671952
0.667814
0.66351
0.659044
0.654421
0.649646
0.644723
0.639657
0.634454
0.629117
0.623653
0.618066
0.612363
0.606549
0.60063
0.594611
0.588499
0.5823
0.576019
0.569663
0.563238
0.55675
0.550207
0.543614
0.536978
0.530305
0.523602
0.516876
0.510133
0.503381
0.496625
0.489872
0.483129
0.476403
0.469701
0.463028
0.456392
0.449799
0.443255
0.436768
0.430343
0.423987
0.417706
0.411507
0.405394
0.399376
0.393457
0.387643
0.38194
0.376353
0.370889
0.365553
0.360349
0.355283
0.35036
0.345585
0.340963
0.336497
0.332193
0.328054
0.324086
0.320291
0.316673
0.313237
0.309985
0.30692
0.304046
0.301365
0.298881
0.296595
0.294509
0.292627
0.290949
0.289477
0.288213
0.287158
0.286313
0.285679
0.285257
0.285046
0.714964
0.714753
0.71433
0.713696
0.712851
0.711796
0.710532
0.70906
0.707382
0.7055
0.703414
0.701128
0.698643
0.695963
0.693088
0.690024
0.686771
0.683335
0.679717
0.675922
0.671953
0.667815
0.663511
0.659045
0.654422
0.649647
0.644724
0.639658
0.634454
0.629118
0.623653
0.618067
0.612364
0.60655
0.600631
0.594612
0.5885
0.5823
0.576019
0.569663
0.563238
0.556751
0.550207
0.543614
0.536978
0.530305
0.523602
0.516876
0.510133
0.503381
0.496625
0.489872
0.483129
0.476403
0.469701
0.463028
0.456392
0.449798
0.443255
0.436768
0.430343
0.423987
0.417706
0.411506
0.405394
0.399375
0.393456
0.387642
0.381939
0.376353
0.370889
0.365552
0.360348
0.355282
0.350359
0.345584
0.340962
0.336496
0.332192
0.328054
0.324085
0.32029
0.316672
0.313236
0.309984
0.306919
0.304045
0.301364
0.29888
0.296594
0.294508
0.292626
0.290948
0.289476
0.288212
0.287157
0.286312
0.285678
0.285256
0.285045
0.714965
0.714754
0.714331
0.713697
0.712852
0.711797
0.710533
0.709061
0.707383
0.705501
0.703415
0.701129
0.698644
0.695963
0.693089
0.690025
0.686772
0.683336
0.679718
0.675923
0.671954
0.667815
0.663511
0.659046
0.654423
0.649648
0.644725
0.639659
0.634455
0.629118
0.623654
0.618067
0.612364
0.60655
0.600631
0.594612
0.5885
0.5823
0.576019
0.569663
0.563238
0.556751
0.550207
0.543614
0.536978
0.530305
0.523602
0.516876
0.510133
0.503381
0.496625
0.489872
0.483129
0.476403
0.4697
0.463028
0.456391
0.449798
0.443255
0.436767
0.430342
0.423986
0.417705
0.411506
0.405393
0.399375
0.393455
0.387641
0.381939
0.376352
0.370888
0.365551
0.360348
0.355282
0.350359
0.345584
0.340961
0.336495
0.332191
0.328053
0.324084
0.320289
0.316672
0.313235
0.309983
0.306918
0.304044
0.301363
0.298879
0.296593
0.294507
0.292625
0.290947
0.289475
0.288211
0.287156
0.286311
0.285677
0.285255
0.285044
0.714966
0.714755
0.714332
0.713698
0.712853
0.711798
0.710534
0.709062
0.707384
0.705502
0.703416
0.70113
0.698645
0.695964
0.69309
0.690025
0.686773
0.683336
0.679719
0.675924
0.671955
0.667816
0.663512
0.659046
0.654424
0.649648
0.644725
0.639659
0.634455
0.629119
0.623654
0.618068
0.612365
0.606551
0.600631
0.594613
0.5885
0.582301
0.57602
0.569664
0.563239
0.556751
0.550207
0.543614
0.536978
0.530305
0.523602
0.516876
0.510133
0.503381
0.496625
0.489872
0.483129
0.476403
0.4697
0.463027
0.456391
0.449798
0.443254
0.436767
0.430342
0.423986
0.417705
0.411505
0.405393
0.399374
0.393455
0.387641
0.381938
0.376352
0.370887
0.365551
0.360347
0.355281
0.350358
0.345583
0.34096
0.336495
0.33219
0.328052
0.324083
0.320288
0.316671
0.313234
0.309982
0.306917
0.304043
0.301363
0.298878
0.296592
0.294506
0.292624
0.290946
0.289474
0.28821
0.287155
0.28631
0.285676
0.285254
0.285043
0.714967
0.714756
0.714333
0.713699
0.712854
0.711799
0.710535
0.709063
0.707385
0.705502
0.703417
0.701131
0.698646
0.695965
0.693091
0.690026
0.686774
0.683337
0.679719
0.675924
0.671955
0.667817
0.663513
0.659047
0.654424
0.649649
0.644726
0.63966
0.634456
0.629119
0.623655
0.618068
0.612365
0.606551
0.600632
0.594613
0.588501
0.582301
0.57602
0.569664
0.563239
0.556751
0.550208
0.543614
0.536978
0.530305
0.523602
0.516876
0.510133
0.503381
0.496625
0.489872
0.483129
0.476403
0.4697
0.463027
0.456391
0.449798
0.443254
0.436767
0.430342
0.423985
0.417704
0.411505
0.405393
0.399374
0.393454
0.38764
0.381937
0.376351
0.370887
0.36555
0.360346
0.35528
0.350357
0.345582
0.34096
0.336494
0.33219
0.328051
0.324083
0.320288
0.31667
0.313233
0.309981
0.306916
0.304042
0.301362
0.298877
0.296591
0.294506
0.292623
0.290945
0.289473
0.288209
0.287155
0.28631
0.285676
0.285253
0.285043
0.714967
0.714757
0.714334
0.7137
0.712855
0.7118
0.710536
0.709064
0.707386
0.705503
0.703418
0.701131
0.698647
0.695966
0.693092
0.690027
0.686774
0.683338
0.67972
0.675925
0.671956
0.667818
0.663513
0.659048
0.654425
0.649649
0.644726
0.63966
0.634456
0.62912
0.623655
0.618069
0.612366
0.606552
0.600632
0.594613
0.588501
0.582301
0.57602
0.569664
0.563239
0.556751
0.550208
0.543615
0.536978
0.530305
0.523602
0.516876
0.510133
0.503381
0.496625
0.489872
0.483129
0.476403
0.4697
0.463027
0.456391
0.449797
0.443254
0.436766
0.430341
0.423985
0.417704
0.411504
0.405392
0.399373
0.393454
0.38764
0.381937
0.376351
0.370886
0.36555
0.360346
0.35528
0.350357
0.345582
0.340959
0.336493
0.332189
0.328051
0.324082
0.320287
0.316669
0.313233
0.30998
0.306916
0.304042
0.301361
0.298876
0.29659
0.294505
0.292622
0.290944
0.289473
0.288209
0.287154
0.286309
0.285675
0.285252
0.285042
0.714968
0.714758
0.714335
0.713701
0.712856
0.711801
0.710536
0.709065
0.707387
0.705504
0.703418
0.701132
0.698647
0.695967
0.693092
0.690028
0.686775
0.683338
0.679721
0.675926
0.671957
0.667818
0.663514
0.659048
0.654425
0.64965
0.644727
0.639661
0.634457
0.62912
0.623656
0.618069
0.612366
0.606552
0.600633
0.594614
0.588501
0.582302
0.57602
0.569664
0.563239
0.556752
0.550208
0.543615
0.536978
0.530305
0.523602
0.516876
0.510133
0.50338
0.496625
0.489872
0.483129
0.476403
0.4697
0.463027
0.45639
0.449797
0.443254
0.436766
0.430341
0.423985
0.417704
0.411504
0.405392
0.399373
0.393454
0.38764
0.381936
0.37635
0.370886
0.365549
0.360345
0.355279
0.350356
0.345581
0.340958
0.336493
0.332188
0.32805
0.324081
0.320286
0.316669
0.313232
0.30998
0.306915
0.304041
0.30136
0.298876
0.296589
0.294504
0.292621
0.290944
0.289472
0.288208
0.287153
0.286308
0.285674
0.285252
0.285041
0.714969
0.714758
0.714336
0.713701
0.712856
0.711801
0.710537
0.709065
0.707387
0.705505
0.703419
0.701133
0.698648
0.695967
0.693093
0.690028
0.686776
0.683339
0.679721
0.675926
0.671957
0.667819
0.663514
0.659049
0.654426
0.64965
0.644727
0.639661
0.634457
0.62912
0.623656
0.61807
0.612366
0.606552
0.600633
0.594614
0.588502
0.582302
0.576021
0.569664
0.563239
0.556752
0.550208
0.543615
0.536978
0.530305
0.523602
0.516876
0.510133
0.50338
0.496624
0.489872
0.483129
0.476402
0.4697
0.463027
0.45639
0.449797
0.443253
0.436766
0.430341
0.423985
0.417703
0.411504
0.405391
0.399373
0.393453
0.387639
0.381936
0.37635
0.370885
0.365549
0.360345
0.355279
0.350356
0.34558
0.340958
0.336492
0.332188
0.328049
0.324081
0.320286
0.316668
0.313231
0.309979
0.306914
0.30404
0.30136
0.298875
0.296589
0.294503
0.292621
0.290943
0.289471
0.288207
0.287152
0.286308
0.285674
0.285251
0.28504
0.71497
0.714759
0.714336
0.713702
0.712857
0.711802
0.710538
0.709066
0.707388
0.705505
0.70342
0.701133
0.698649
0.695968
0.693094
0.690029
0.686776
0.68334
0.679722
0.675927
0.671958
0.667819
0.663515
0.659049
0.654426
0.649651
0.644728
0.639662
0.634458
0.629121
0.623656
0.61807
0.612367
0.606553
0.600633
0.594614
0.588502
0.582302
0.576021
0.569665
0.56324
0.556752
0.550208
0.543615
0.536978
0.530305
0.523603
0.516876
0.510133
0.50338
0.496624
0.489872
0.483129
0.476402
0.469699
0.463026
0.45639
0.449797
0.443253
0.436766
0.43034
0.423984
0.417703
0.411503
0.405391
0.399372
0.393453
0.387639
0.381936
0.376349
0.370885
0.365548
0.360344
0.355278
0.350355
0.34558
0.340957
0.336492
0.332187
0.328049
0.32408
0.320285
0.316667
0.313231
0.309978
0.306914
0.30404
0.301359
0.298874
0.296588
0.294503
0.29262
0.290942
0.289471
0.288207
0.287152
0.286307
0.285673
0.28525
0.28504
0.71497
0.71476
0.714337
0.713703
0.712858
0.711803
0.710538
0.709067
0.707389
0.705506
0.70342
0.701134
0.698649
0.695968
0.693094
0.690029
0.686777
0.68334
0.679722
0.675927
0.671958
0.66782
0.663515
0.659049
0.654427
0.649651
0.644728
0.639662
0.634458
0.629121
0.623657
0.61807
0.612367
0.606553
0.600633
0.594614
0.588502
0.582302
0.576021
0.569665
0.56324
0.556752
0.550208
0.543615
0.536978
0.530306
0.523603
0.516876
0.510133
0.50338
0.496624
0.489871
0.483128
0.476402
0.469699
0.463026
0.45639
0.449797
0.443253
0.436765
0.43034
0.423984
0.417703
0.411503
0.405391
0.399372
0.393452
0.387638
0.381935
0.376349
0.370884
0.365548
0.360344
0.355278
0.350355
0.345579
0.340957
0.336491
0.332187
0.328048
0.32408
0.320284
0.316667
0.31323
0.309978
0.306913
0.304039
0.301358
0.298874
0.296588
0.294502
0.29262
0.290942
0.28947
0.288206
0.287151
0.286306
0.285672
0.28525
0.285039
0.714971
0.71476
0.714337
0.713703
0.712858
0.711803
0.710539
0.709067
0.707389
0.705506
0.703421
0.701135
0.69865
0.695969
0.693095
0.69003
0.686777
0.683341
0.679723
0.675928
0.671959
0.66782
0.663516
0.65905
0.654427
0.649652
0.644728
0.639662
0.634458
0.629121
0.623657
0.618071
0.612367
0.606553
0.600634
0.594615
0.588502
0.582302
0.576021
0.569665
0.56324
0.556752
0.550208
0.543615
0.536979
0.530306
0.523603
0.516876
0.510133
0.50338
0.496624
0.489871
0.483128
0.476402
0.469699
0.463026
0.45639
0.449796
0.443253
0.436765
0.43034
0.423984
0.417703
0.411503
0.40539
0.399372
0.393452
0.387638
0.381935
0.376348
0.370884
0.365547
0.360343
0.355277
0.350354
0.345579
0.340956
0.336491
0.332186
0.328048
0.324079
0.320284
0.316666
0.31323
0.309977
0.306913
0.304039
0.301358
0.298873
0.296587
0.294502
0.292619
0.290941
0.289469
0.288206
0.287151
0.286306
0.285672
0.285249
0.285039
0.714971
0.714761
0.714338
0.713704
0.712859
0.711804
0.71054
0.709068
0.70739
0.705507
0.703421
0.701135
0.69865
0.695969
0.693095
0.69003
0.686778
0.683341
0.679723
0.675928
0.671959
0.66782
0.663516
0.65905
0.654427
0.649652
0.644729
0.639663
0.634459
0.629122
0.623657
0.618071
0.612368
0.606553
0.600634
0.594615
0.588502
0.582303
0.576021
0.569665
0.56324
0.556752
0.550208
0.543615
0.536979
0.530306
0.523603
0.516876
0.510133
0.50338
0.496624
0.489871
0.483128
0.476402
0.469699
0.463026
0.45639
0.449796
0.443253
0.436765
0.43034
0.423984
0.417702
0.411503
0.40539
0.399371
0.393452
0.387638
0.381935
0.376348
0.370884
0.365547
0.360343
0.355277
0.350354
0.345579
0.340956
0.33649
0.332186
0.328047
0.324079
0.320284
0.316666
0.313229
0.309977
0.306912
0.304038
0.301357
0.298873
0.296587
0.294501
0.292619
0.290941
0.289469
0.288205
0.28715
0.286305
0.285671
0.285249
0.285038
0.714972
0.714761
0.714338
0.713704
0.712859
0.711804
0.71054
0.709068
0.70739
0.705507
0.703422
0.701135
0.698651
0.69597
0.693095
0.690031
0.686778
0.683341
0.679724
0.675928
0.671959
0.667821
0.663516
0.659051
0.654428
0.649652
0.644729
0.639663
0.634459
0.629122
0.623658
0.618071
0.612368
0.606554
0.600634
0.594615
0.588503
0.582303
0.576022
0.569665
0.56324
0.556752
0.550209
0.543615
0.536979
0.530306
0.523603
0.516876
0.510133
0.50338
0.496624
0.489871
0.483128
0.476402
0.469699
0.463026
0.456389
0.449796
0.443252
0.436765
0.43034
0.423983
0.417702
0.411502
0.40539
0.399371
0.393452
0.387637
0.381934
0.376348
0.370883
0.365547
0.360343
0.355277
0.350354
0.345578
0.340956
0.33649
0.332186
0.328047
0.324078
0.320283
0.316665
0.313229
0.309977
0.306912
0.304038
0.301357
0.298872
0.296586
0.294501
0.292618
0.29094
0.289469
0.288205
0.28715
0.286305
0.285671
0.285248
0.285038
0.714972
0.714761
0.714339
0.713705
0.71286
0.711804
0.71054
0.709069
0.70739
0.705508
0.703422
0.701136
0.698651
0.69597
0.693096
0.690031
0.686778
0.683342
0.679724
0.675929
0.67196
0.667821
0.663517
0.659051
0.654428
0.649653
0.644729
0.639663
0.634459
0.629122
0.623658
0.618071
0.612368
0.606554
0.600634
0.594615
0.588503
0.582303
0.576022
0.569665
0.56324
0.556752
0.550209
0.543615
0.536979
0.530306
0.523603
0.516876
0.510133
0.50338
0.496624
0.489871
0.483128
0.476402
0.469699
0.463026
0.456389
0.449796
0.443252
0.436765
0.430339
0.423983
0.417702
0.411502
0.40539
0.399371
0.393451
0.387637
0.381934
0.376348
0.370883
0.365546
0.360342
0.355276
0.350353
0.345578
0.340955
0.336489
0.332185
0.328047
0.324078
0.320283
0.316665
0.313228
0.309976
0.306911
0.304037
0.301357
0.298872
0.296586
0.2945
0.292618
0.29094
0.289468
0.288204
0.287149
0.286305
0.285671
0.285248
0.285038
0.714973
0.714762
0.714339
0.713705
0.71286
0.711805
0.710541
0.709069
0.707391
0.705508
0.703422
0.701136
0.698651
0.69597
0.693096
0.690031
0.686779
0.683342
0.679724
0.675929
0.67196
0.667821
0.663517
0.659051
0.654428
0.649653
0.64473
0.639663
0.634459
0.629122
0.623658
0.618071
0.612368
0.606554
0.600634
0.594615
0.588503
0.582303
0.576022
0.569665
0.56324
0.556752
0.550209
0.543615
0.536979
0.530306
0.523603
0.516876
0.510133
0.50338
0.496624
0.489871
0.483128
0.476402
0.469699
0.463026
0.456389
0.449796
0.443252
0.436764
0.430339
0.423983
0.417702
0.411502
0.40539
0.399371
0.393451
0.387637
0.381934
0.376347
0.370883
0.365546
0.360342
0.355276
0.350353
0.345578
0.340955
0.336489
0.332185
0.328046
0.324078
0.320283
0.316665
0.313228
0.309976
0.306911
0.304037
0.301356
0.298872
0.296586
0.2945
0.292618
0.29094
0.289468
0.288204
0.287149
0.286304
0.28567
0.285248
0.285037
0.714973
0.714762
0.714339
0.713705
0.71286
0.711805
0.710541
0.709069
0.707391
0.705508
0.703423
0.701136
0.698651
0.695971
0.693096
0.690031
0.686779
0.683342
0.679724
0.675929
0.67196
0.667821
0.663517
0.659051
0.654428
0.649653
0.64473
0.639664
0.634459
0.629123
0.623658
0.618071
0.612368
0.606554
0.600634
0.594615
0.588503
0.582303
0.576022
0.569665
0.56324
0.556752
0.550209
0.543615
0.536979
0.530306
0.523603
0.516876
0.510133
0.50338
0.496624
0.489871
0.483128
0.476402
0.469699
0.463026
0.456389
0.449796
0.443252
0.436764
0.430339
0.423983
0.417702
0.411502
0.405389
0.39937
0.393451
0.387637
0.381934
0.376347
0.370883
0.365546
0.360342
0.355276
0.350353
0.345578
0.340955
0.336489
0.332185
0.328046
0.324077
0.320282
0.316665
0.313228
0.309976
0.306911
0.304037
0.301356
0.298871
0.296585
0.2945
0.292617
0.290939
0.289468
0.288204
0.287149
0.286304
0.28567
0.285248
0.285037
0.714973
0.714762
0.71434
0.713705
0.71286
0.711805
0.710541
0.709069
0.707391
0.705508
0.703423
0.701137
0.698652
0.695971
0.693097
0.690032
0.686779
0.683342
0.679725
0.675929
0.67196
0.667822
0.663517
0.659051
0.654428
0.649653
0.64473
0.639664
0.63446
0.629123
0.623658
0.618072
0.612368
0.606554
0.600634
0.594615
0.588503
0.582303
0.576022
0.569665
0.56324
0.556752
0.550209
0.543615
0.536979
0.530306
0.523603
0.516876
0.510133
0.50338
0.496624
0.489871
0.483128
0.476402
0.469699
0.463026
0.456389
0.449796
0.443252
0.436764
0.430339
0.423983
0.417702
0.411502
0.405389
0.39937
0.393451
0.387637
0.381934
0.376347
0.370883
0.365546
0.360342
0.355276
0.350353
0.345577
0.340955
0.336489
0.332185
0.328046
0.324077
0.320282
0.316664
0.313228
0.309975
0.306911
0.304037
0.301356
0.298871
0.296585
0.2945
0.292617
0.290939
0.289467
0.288204
0.287149
0.286304
0.28567
0.285247
0.285037
0.714973
0.714763
0.71434
0.713706
0.712861
0.711805
0.710541
0.70907
0.707391
0.705509
0.703423
0.701137
0.698652
0.695971
0.693097
0.690032
0.686779
0.683342
0.679725
0.675929
0.67196
0.667822
0.663517
0.659051
0.654429
0.649653
0.64473
0.639664
0.63446
0.629123
0.623658
0.618072
0.612368
0.606554
0.600634
0.594615
0.588503
0.582303
0.576022
0.569665
0.56324
0.556752
0.550209
0.543615
0.536979
0.530306
0.523603
0.516876
0.510133
0.50338
0.496624
0.489871
0.483128
0.476402
0.469699
0.463026
0.456389
0.449796
0.443252
0.436764
0.430339
0.423983
0.417701
0.411502
0.405389
0.39937
0.393451
0.387637
0.381933
0.376347
0.370882
0.365546
0.360342
0.355276
0.350353
0.345577
0.340954
0.336489
0.332184
0.328046
0.324077
0.320282
0.316664
0.313228
0.309975
0.306911
0.304036
0.301356
0.298871
0.296585
0.294499
0.292617
0.290939
0.289467
0.288203
0.287149
0.286304
0.28567
0.285247
0.285037
0.714973
0.714763
0.71434
0.713706
0.712861
0.711806
0.710541
0.70907
0.707392
0.705509
0.703423
0.701137
0.698652
0.695971
0.693097
0.690032
0.686779
0.683343
0.679725
0.675929
0.671961
0.667822
0.663517
0.659052
0.654429
0.649653
0.64473
0.639664
0.63446
0.629123
0.623658
0.618072
0.612368
0.606554
0.600635
0.594616
0.588503
0.582303
0.576022
0.569665
0.56324
0.556752
0.550209
0.543615
0.536979
0.530306
0.523603
0.516876
0.510133
0.50338
0.496624
0.489871
0.483128
0.476402
0.469699
0.463025
0.456389
0.449796
0.443252
0.436764
0.430339
0.423983
0.417701
0.411501
0.405389
0.39937
0.393451
0.387636
0.381933
0.376347
0.370882
0.365546
0.360342
0.355276
0.350352
0.345577
0.340954
0.336489
0.332184
0.328046
0.324077
0.320282
0.316664
0.313227
0.309975
0.30691
0.304036
0.301356
0.298871
0.296585
0.294499
0.292617
0.290939
0.289467
0.288203
0.287148
0.286304
0.28567
0.285247
0.285036
0.714973
0.714763
0.71434
0.713706
0.712861
0.711806
0.710542
0.70907
0.707392
0.705509
0.703423
0.701137
0.698652
0.695971
0.693097
0.690032
0.686779
0.683343
0.679725
0.67593
0.671961
0.667822
0.663517
0.659052
0.654429
0.649653
0.64473
0.639664
0.63446
0.629123
0.623658
0.618072
0.612368
0.606554
0.600634
0.594616
0.588503
0.582303
0.576022
0.569665
0.56324
0.556752
0.550209
0.543615
0.536979
0.530306
0.523602
0.516876
0.510133
0.50338
0.496624
0.489871
0.483128
0.476401
0.469698
0.463025
0.456389
0.449795
0.443252
0.436764
0.430339
0.423982
0.417701
0.411501
0.405389
0.39937
0.393451
0.387636
0.381933
0.376347
0.370882
0.365545
0.360341
0.355275
0.350352
0.345577
0.340954
0.336488
0.332184
0.328046
0.324077
0.320282
0.316664
0.313227
0.309975
0.30691
0.304036
0.301356
0.298871
0.296585
0.294499
0.292617
0.290939
0.289467
0.288203
0.287148
0.286304
0.28567
0.285247
0.285036
0.714973
0.714763
0.71434
0.713706
0.712861
0.711806
0.710542
0.70907
0.707392
0.705509
0.703423
0.701137
0.698652
0.695971
0.693097
0.690032
0.686779
0.683343
0.679725
0.67593
0.671961
0.667822
0.663517
0.659052
0.654429
0.649653
0.64473
0.639664
0.63446
0.629123
0.623658
0.618072
0.612368
0.606554
0.600634
0.594615
0.588503
0.582303
0.576022
0.569665
0.56324
0.556752
0.550209
0.543615
0.536979
0.530305
0.523602
0.516876
0.510133
0.50338
0.496624
0.489871
0.483128
0.476401
0.469698
0.463025
0.456389
0.449795
0.443252
0.436764
0.430339
0.423982
0.417701
0.411501
0.405389
0.39937
0.393451
0.387636
0.381933
0.376347
0.370882
0.365545
0.360341
0.355275
0.350352
0.345577
0.340954
0.336488
0.332184
0.328046
0.324077
0.320282
0.316664
0.313227
0.309975
0.30691
0.304036
0.301356
0.298871
0.296585
0.294499
0.292617
0.290939
0.289467
0.288203
0.287148
0.286304
0.28567
0.285247
0.285036
0.714973
0.714763
0.71434
0.713706
0.712861
0.711806
0.710542
0.70907
0.707392
0.705509
0.703423
0.701137
0.698652
0.695971
0.693097
0.690032
0.686779
0.683343
0.679725
0.675929
0.671961
0.667822
0.663517
0.659052
0.654429
0.649653
0.64473
0.639664
0.63446
0.629123
0.623658
0.618072
0.612368
0.606554
0.600634
0.594615
0.588503
0.582303
0.576022
0.569665
0.56324
0.556752
0.550209
0.543615
0.536979
0.530305
0.523602
0.516876
0.510133
0.50338
0.496624
0.489871
0.483128
0.476401
0.469698
0.463025
0.456389
0.449795
0.443252
0.436764
0.430339
0.423982
0.417701
0.411501
0.405389
0.39937
0.393451
0.387636
0.381933
0.376347
0.370882
0.365545
0.360341
0.355275
0.350352
0.345577
0.340954
0.336488
0.332184
0.328046
0.324077
0.320282
0.316664
0.313227
0.309975
0.30691
0.304036
0.301356
0.298871
0.296585
0.294499
0.292617
0.290939
0.289467
0.288203
0.287148
0.286304
0.28567
0.285247
0.285037
0.714973
0.714763
0.71434
0.713706
0.712861
0.711805
0.710541
0.70907
0.707391
0.705509
0.703423
0.701137
0.698652
0.695971
0.693097
0.690032
0.686779
0.683342
0.679725
0.675929
0.67196
0.667822
0.663517
0.659051
0.654428
0.649653
0.64473
0.639664
0.63446
0.629123
0.623658
0.618071
0.612368
0.606554
0.600634
0.594615
0.588503
0.582303
0.576022
0.569665
0.56324
0.556752
0.550208
0.543615
0.536978
0.530305
0.523602
0.516876
0.510133
0.50338
0.496624
0.489871
0.483128
0.476401
0.469698
0.463025
0.456389
0.449795
0.443252
0.436764
0.430339
0.423982
0.417701
0.411501
0.405389
0.39937
0.393451
0.387636
0.381933
0.376347
0.370882
0.365546
0.360342
0.355275
0.350352
0.345577
0.340954
0.336489
0.332184
0.328046
0.324077
0.320282
0.316664
0.313228
0.309975
0.30691
0.304036
0.301356
0.298871
0.296585
0.294499
0.292617
0.290939
0.289467
0.288203
0.287149
0.286304
0.28567
0.285247
0.285037
0.714973
0.714762
0.71434
0.713705
0.71286
0.711805
0.710541
0.709069
0.707391
0.705508
0.703423
0.701137
0.698652
0.695971
0.693097
0.690032
0.686779
0.683342
0.679724
0.675929
0.67196
0.667822
0.663517
0.659051
0.654428
0.649653
0.64473
0.639663
0.634459
0.629122
0.623658
0.618071
0.612368
0.606554
0.600634
0.594615
0.588503
0.582303
0.576022
0.569665
0.56324
0.556752
0.550208
0.543615
0.536978
0.530305
0.523602
0.516876
0.510133
0.50338
0.496624
0.489871
0.483128
0.476401
0.469698
0.463025
0.456389
0.449795
0.443252
0.436764
0.430339
0.423982
0.417701
0.411501
0.405389
0.39937
0.393451
0.387636
0.381933
0.376347
0.370882
0.365546
0.360342
0.355276
0.350352
0.345577
0.340954
0.336489
0.332184
0.328046
0.324077
0.320282
0.316664
0.313228
0.309975
0.306911
0.304037
0.301356
0.298871
0.296585
0.2945
0.292617
0.290939
0.289467
0.288204
0.287149
0.286304
0.28567
0.285247
0.285037
0.714973
0.714762
0.714339
0.713705
0.71286
0.711805
0.710541
0.709069
0.707391
0.705508
0.703423
0.701136
0.698652
0.695971
0.693096
0.690031
0.686779
0.683342
0.679724
0.675929
0.67196
0.667821
0.663517
0.659051
0.654428
0.649653
0.644729
0.639663
0.634459
0.629122
0.623658
0.618071
0.612368
0.606554
0.600634
0.594615
0.588503
0.582303
0.576021
0.569665
0.56324
0.556752
0.550208
0.543615
0.536978
0.530305
0.523602
0.516876
0.510133
0.50338
0.496624
0.489871
0.483128
0.476401
0.469698
0.463025
0.456389
0.449795
0.443252
0.436764
0.430339
0.423983
0.417701
0.411501
0.405389
0.39937
0.393451
0.387637
0.381933
0.376347
0.370883
0.365546
0.360342
0.355276
0.350353
0.345577
0.340955
0.336489
0.332185
0.328046
0.324077
0.320282
0.316664
0.313228
0.309976
0.306911
0.304037
0.301356
0.298871
0.296585
0.2945
0.292617
0.290939
0.289468
0.288204
0.287149
0.286304
0.28567
0.285248
0.285037
0.714973
0.714762
0.714339
0.713705
0.71286
0.711805
0.710541
0.709069
0.707391
0.705508
0.703422
0.701136
0.698651
0.69597
0.693096
0.690031
0.686779
0.683342
0.679724
0.675929
0.67196
0.667821
0.663517
0.659051
0.654428
0.649653
0.644729
0.639663
0.634459
0.629122
0.623658
0.618071
0.612368
0.606553
0.600634
0.594615
0.588502
0.582303
0.576021
0.569665
0.56324
0.556752
0.550208
0.543615
0.536978
0.530305
0.523602
0.516876
0.510133
0.50338
0.496624
0.489871
0.483128
0.476401
0.469698
0.463025
0.456389
0.449795
0.443252
0.436764
0.430339
0.423983
0.417701
0.411502
0.405389
0.39937
0.393451
0.387637
0.381933
0.376347
0.370883
0.365546
0.360342
0.355276
0.350353
0.345577
0.340955
0.336489
0.332185
0.328046
0.324077
0.320282
0.316665
0.313228
0.309976
0.306911
0.304037
0.301356
0.298872
0.296585
0.2945
0.292618
0.29094
0.289468
0.288204
0.287149
0.286304
0.28567
0.285248
0.285037
0.714972
0.714762
0.714339
0.713705
0.71286
0.711805
0.71054
0.709069
0.707391
0.705508
0.703422
0.701136
0.698651
0.69597
0.693096
0.690031
0.686778
0.683342
0.679724
0.675929
0.67196
0.667821
0.663516
0.659051
0.654428
0.649652
0.644729
0.639663
0.634459
0.629122
0.623657
0.618071
0.612368
0.606553
0.600634
0.594615
0.588502
0.582302
0.576021
0.569665
0.56324
0.556752
0.550208
0.543615
0.536978
0.530305
0.523602
0.516876
0.510133
0.50338
0.496624
0.489871
0.483128
0.476401
0.469698
0.463025
0.456389
0.449795
0.443252
0.436764
0.430339
0.423983
0.417701
0.411502
0.405389
0.39937
0.393451
0.387637
0.381934
0.376347
0.370883
0.365546
0.360342
0.355276
0.350353
0.345578
0.340955
0.336489
0.332185
0.328046
0.324078
0.320283
0.316665
0.313228
0.309976
0.306911
0.304037
0.301357
0.298872
0.296586
0.2945
0.292618
0.29094
0.289468
0.288204
0.28715
0.286305
0.285671
0.285248
0.285038
0.714972
0.714761
0.714339
0.713704
0.712859
0.711804
0.71054
0.709068
0.70739
0.705507
0.703422
0.701135
0.698651
0.69597
0.693095
0.690031
0.686778
0.683341
0.679723
0.675928
0.671959
0.667821
0.663516
0.65905
0.654427
0.649652
0.644729
0.639663
0.634459
0.629122
0.623657
0.618071
0.612367
0.606553
0.600634
0.594615
0.588502
0.582302
0.576021
0.569665
0.563239
0.556752
0.550208
0.543615
0.536978
0.530305
0.523602
0.516876
0.510133
0.50338
0.496624
0.489871
0.483128
0.476401
0.469698
0.463025
0.456389
0.449796
0.443252
0.436764
0.430339
0.423983
0.417702
0.411502
0.405389
0.399371
0.393451
0.387637
0.381934
0.376347
0.370883
0.365546
0.360342
0.355276
0.350353
0.345578
0.340955
0.336489
0.332185
0.328047
0.324078
0.320283
0.316665
0.313229
0.309976
0.306912
0.304038
0.301357
0.298872
0.296586
0.294501
0.292618
0.29094
0.289469
0.288205
0.28715
0.286305
0.285671
0.285249
0.285038
0.714972
0.714761
0.714338
0.713704
0.712859
0.711804
0.71054
0.709068
0.70739
0.705507
0.703421
0.701135
0.69865
0.695969
0.693095
0.69003
0.686778
0.683341
0.679723
0.675928
0.671959
0.66782
0.663516
0.65905
0.654427
0.649652
0.644728
0.639662
0.634458
0.629121
0.623657
0.61807
0.612367
0.606553
0.600633
0.594614
0.588502
0.582302
0.576021
0.569664
0.563239
0.556752
0.550208
0.543614
0.536978
0.530305
0.523602
0.516876
0.510133
0.50338
0.496624
0.489871
0.483128
0.476401
0.469698
0.463025
0.456389
0.449796
0.443252
0.436764
0.430339
0.423983
0.417702
0.411502
0.40539
0.399371
0.393451
0.387637
0.381934
0.376348
0.370883
0.365546
0.360343
0.355277
0.350353
0.345578
0.340955
0.33649
0.332186
0.328047
0.324078
0.320283
0.316666
0.313229
0.309977
0.306912
0.304038
0.301357
0.298873
0.296587
0.294501
0.292619
0.290941
0.289469
0.288205
0.28715
0.286306
0.285672
0.285249
0.285038
0.714971
0.71476
0.714338
0.713703
0.712858
0.711803
0.710539
0.709067
0.707389
0.705506
0.703421
0.701135
0.69865
0.695969
0.693095
0.69003
0.686777
0.68334
0.679723
0.675927
0.671958
0.66782
0.663515
0.65905
0.654427
0.649651
0.644728
0.639662
0.634458
0.629121
0.623657
0.61807
0.612367
0.606553
0.600633
0.594614
0.588502
0.582302
0.576021
0.569664
0.563239
0.556751
0.550208
0.543614
0.536978
0.530305
0.523602
0.516876
0.510133
0.50338
0.496624
0.489871
0.483128
0.476401
0.469698
0.463025
0.456389
0.449796
0.443252
0.436764
0.430339
0.423983
0.417702
0.411502
0.40539
0.399371
0.393452
0.387637
0.381934
0.376348
0.370884
0.365547
0.360343
0.355277
0.350354
0.345579
0.340956
0.33649
0.332186
0.328047
0.324079
0.320284
0.316666
0.313229
0.309977
0.306913
0.304038
0.301358
0.298873
0.296587
0.294502
0.292619
0.290941
0.28947
0.288206
0.287151