/*--------------------------------*- C++ -*----------------------------------*\
  =========                 |
  \\      /  F ield         | OpenFOAM: The Open Source CFD Toolbox
   \\    /   O peration     | Website:  https://openfoam.org
    \\  /    A nd           | Version:  6
     \\/     M anipulation  |
\*---------------------------------------------------------------------------*/
FoamFile
{
    version     2.0;
    format      ascii;
    class       volScalarField;
    location    "0";
    object      p;
}
// * * * * * * * * * * * * * * * * * * * * * * * * * * * * * * * * * * * * * //

dimensions      [0 2 -2 0 0 0 0];

internalField   nonuniform List<scalar> 
5200
(
-0.146817
-0.13245
-0.111223
-0.0888997
-0.068502
-0.0512321
-0.0372826
-0.0263621
-0.0179771
-0.012162
-0.225419
-0.210769
-0.188677
-0.164599
-0.141565
-0.120963
-0.103215
-0.0882258
-0.0756502
-0.0653934
-0.301122
-0.286243
-0.263485
-0.238038
-0.212906
-0.189602
-0.168729
-0.150383
-0.134403
-0.120756
-0.372067
-0.357001
-0.33373
-0.307223
-0.28044
-0.254975
-0.231571
-0.210477
-0.191674
-0.175147
-0.436505
-0.421289
-0.397627
-0.370304
-0.342234
-0.315062
-0.28963
-0.266298
-0.245148
-0.226179
-0.492845
-0.47751
-0.453554
-0.425612
-0.396553
-0.368053
-0.341022
-0.315899
-0.292839
-0.271863
-0.539692
-0.524267
-0.500093
-0.471693
-0.441895
-0.41239
-0.384136
-0.357625
-0.333069
-0.310517
-0.575886
-0.560393
-0.536067
-0.507343
-0.477018
-0.446792
-0.41765
-0.390126
-0.364469
-0.340755
-0.600526
-0.58499
-0.560566
-0.531635
-0.500971
-0.470278
-0.440559
-0.412372
-0.385991
-0.361513
-0.612999
-0.597441
-0.572969
-0.543937
-0.513107
-0.482184
-0.452181
-0.423666
-0.396926
-0.372069
0.393982
0.375753
0.346478
0.315081
0.284796
0.256855
0.231634
0.209117
0.189115
0.171813
0.385074
0.375236
0.351251
0.321331
0.291128
0.262819
0.237107
0.214094
0.193638
0.176013
0.361383
0.360987
0.347118
0.323332
0.296095
0.269018
0.243667
0.22059
0.199877
0.182036
0.325377
0.330919
0.327221
0.312512
0.291532
0.268347
0.245297
0.223528
0.203513
0.186148
0.278598
0.28751
0.291722
0.286202
0.273144
0.255953
0.237183
0.218388
0.200411
0.184568
0.22231
0.233203
0.243051
0.245402
0.240318
0.230058
0.216874
0.202412
0.187732
0.174487
0.157919
0.170056
0.18385
0.192468
0.194535
0.191179
0.184094
0.174764
0.16428
0.154479
0.0870143
0.0999863
0.116573
0.13004
0.138153
0.141127
0.140052
0.136111
0.130295
0.124453
0.0113391
0.0249071
0.0435118
0.0607084
0.0737901
0.082302
0.0867893
0.0880859
0.0869972
0.0852563
-0.0672475
-0.0532314
-0.0331334
-0.0130547
0.00406714
0.0173197
0.0268112
0.0330388
0.0365393
0.0385773
0.1492
0.124314
0.103878
0.0874395
0.0740367
0.0629985
0.0538268
0.0461455
0.0396672
0.0341689
0.0294763
0.0254516
0.0219844
0.018986
0.0163844
0.0141206
0.0121458
0.0104198
0.00890887
0.00758465
0.00642327
0.00540448
0.00451105
0.00372823
0.00304345
0.00244589
0.00192629
0.00147672
0.00109042
0.000761636
0.000485527
0.000258082
7.60358e-05
-6.31719e-05
-0.00016144
-0.000220026
-0.000239562
-0.000220045
-0.000160829
-6.06024e-05
0.152634
0.126829
0.105796
0.0888994
0.0751609
0.0638756
0.0545195
0.0466988
0.0401134
0.034532
0.029774
0.0256973
0.0221884
0.0191563
0.0165272
0.0142408
0.0122474
0.010506
0.00898214
0.00764715
0.00647674
0.00545033
0.00455045
0.00376218
0.00307275
0.00247122
0.00194822
0.00149573
0.0011069
0.000775903
0.000497858
0.000268695
8.51093e-05
-5.54971e-05
-0.000155056
-0.000214854
-0.000235548
-0.000217161
-0.000159067
-6.00029e-05
0.157995
0.131065
0.109194
0.0915695
0.0772616
0.0655388
0.055847
0.0477671
0.04098
0.0352402
0.0303566
0.0261794
0.0225895
0.0194916
0.0168087
0.0144781
0.0124481
0.0106763
0.00912707
0.00777084
0.00658256
0.0055411
0.00462849
0.00382942
0.00313079
0.00252141
0.00199169
0.0015334
0.00113956
0.000804196
0.000522317
0.000289756
0.000103125
-4.02506e-05
-0.000142365
-0.000204565
-0.000227558
-0.000211415
-0.000155554
-5.88074e-05
0.162778
0.135624
0.113259
0.0949705
0.080048
0.0678062
0.0576919
0.0492728
0.0422142
0.0362567
0.0311979
0.0268789
0.0231736
0.0199813
0.0172208
0.014826
0.0127428
0.0109266
0.00934028
0.00795292
0.00673844
0.00567487
0.00474353
0.00392856
0.00321641
0.00259547
0.00205584
0.00158902
0.00118779
0.000846005
0.000558481
0.000320917
0.000129798
-1.76579e-05
-0.000123543
-0.000189289
-0.000215682
-0.000202867
-0.000150327
-5.70284e-05
0.164138
0.138759
0.116918
0.0984432
0.0831093
0.0704167
0.0598844
0.0511025
0.0437386
0.0375274
0.0322592
0.0277675
0.0239197
0.0206095
0.0177511
0.0152749
0.0131238
0.0112508
0.0096168
0.0081893
0.00694098
0.00584877
0.00489318
0.00405759
0.00332787
0.00269193
0.00213943
0.00166153
0.00125071
0.000900574
0.000605719
0.000361656
0.000164707
1.19458e-05
-9.88465e-05
-0.000169217
-0.000200057
-0.000191605
-0.000143439
-5.46847e-05
0.159552
0.13868
0.118969
0.101209
0.0859431
0.0730433
0.0622084
0.053111
0.0454533
0.0389825
0.0334907
0.0288089
0.0248007
0.0213556
0.018384
0.0158126
0.0135815
0.011641
0.00995021
0.00847471
0.00718577
0.00605915
0.00507433
0.00421388
0.00346295
0.00280888
0.00224083
0.00174955
0.00132715
0.000966917
0.000663206
0.000411292
0.000207296
4.81187e-05
-6.86186e-05
-0.000144604
-0.00018086
-0.000177748
-0.000134959
-5.18007e-05
0.14726
0.133824
0.118227
0.102438
0.0879877
0.0753092
0.0644102
0.0551255
0.0472391
0.0405381
0.0348321
0.0299592
0.0257841
0.0221952
0.0191004
0.0164242
0.0141039
0.0120879
0.0103328
0.00880281
0.00746756
0.00630157
0.00528325
0.00439425
0.00361895
0.00294403
0.00235809
0.0018514
0.00141567
0.00104383
0.000729935
0.00046899
0.000256887
9.03176e-05
-3.32807e-05
-0.000115766
-0.000158315
-0.000161439
-0.000124974
-4.84061e-05
0.126429
0.123054
0.113652
0.101323
0.0886588
0.0768059
0.0662078
0.056951
0.0489601
0.0420981
0.0362148
0.0311683
0.0268327
0.0231
0.0198789
0.0170929
0.0146779
0.0125805
0.0107558
0.00916635
0.00778032
0.00657099
0.00551567
0.00459508
0.00379278
0.00309473
0.00248893
0.00196515
0.00151463
0.00112993
0.000804736
0.000533779
0.000312683
0.000137904
6.67014e-06
-8.3073e-05
-0.000132686
-0.000142853
-0.000113583
-4.45346e-05
0.0970807
0.105738
0.104431
0.0971309
0.0873797
0.0771092
0.0672987
0.0583747
0.0504664
0.0435564
0.0375624
0.0323805
0.0279053
0.0240391
0.0206956
0.0178
0.0152886
0.0131071
0.0112097
0.00955739
0.00811741
0.00686182
0.00576688
0.00481236
0.00398099
0.00325804
0.00263086
0.00208865
0.0016222
0.00122364
0.000886293
0.000604561
0.000373782
0.000190154
5.06661e-05
-4.69532e-05
-0.000104274
-0.000122183
-0.000100897
-4.02227e-05
0.0603986
0.0821388
0.0903093
0.0894542
0.0837594
0.0759005
0.0674421
0.0592204
0.0516307
0.0448207
0.0388077
0.0335461
0.0289643
0.0249836
0.021528
0.0185279
0.0159218
0.0136561
0.0116846
0.00996787
0.00847207
0.00716831
0.00603194
0.00504184
0.00417996
0.00343081
0.00278113
0.00221956
0.00173637
0.00132325
0.000973154
0.000680121
0.000439182
0.000246255
9.80704e-05
-7.88694e-06
-7.34202e-05
-9.96492e-05
-8.70289e-05
-3.55052e-05
0.0227033
0.0545105
0.070271
0.0755332
0.0744468
0.0698693
0.0636565
0.0569284
0.0503115
0.0441239
0.038502
0.0334809
0.0290423
0.0251429
0.0217292
0.0187466
0.016143
0.0138711
0.0118887
0.0101586
0.00864872
0.00733101
0.00618133
0.00517885
0.00430561
0.00354613
0.00288707
0.00231697
0.00182596
0.0014056
0.00104868
0.000749104
0.000501735
0.000302331
0.00014745
3.43974e-05
-3.88265e-05
-7.35607e-05
-7.05096e-05
-2.97972e-05
-0.00515298
0.0291562
0.0490171
0.0586194
0.061447
0.0601154
0.0564522
0.0516574
0.0464745
0.0413369
0.036479
0.0320125
0.027977
0.0243713
0.0211725
0.018348
0.0158613
0.0136764
0.011759
0.0100779
0.00860492
0.00731523
0.00618685
0.00520054
0.00433954
0.00358923
0.00293689
0.00237153
0.00188362
0.00146495
0.00110846
0.000808135
0.000558893
0.000356481
0.000197412
7.89013e-05
-1.1804e-06
-4.43476e-05
-5.15277e-05
-2.31014e-05
-0.0267828
0.0074748
0.0296755
0.0424246
0.0484339
0.0499473
0.0486557
0.0457521
0.0420348
0.0380128
0.033995
0.0301577
0.0265925
0.0233385
0.0204034
0.0177772
0.0154403
0.0133691
0.0115385
0.00992385
0.00850213
0.00725204
0.00615437
0.00519193
0.00434943
0.00361341
0.00297199
0.00241481
0.00193281
0.0015181
0.00116388
0.00086429
0.000614339
0.000409813
0.000247209
0.000123681
3.69863e-05
-1.45489e-05
-3.20659e-05
-1.62152e-05
-0.0436417
-0.0106278
0.0125877
0.0274195
0.035865
0.039752
0.0405664
0.0394293
0.0371412
0.0342486
0.03111
0.0279509
0.0249063
0.022051
0.0194215
0.0170299
0.0148736
0.0129419
0.0112195
0.00968918
0.00833337
0.00713501
0.00607807
0.00514774
0.00433059
0.0036145
0.00298868
0.00244355
0.00197064
0.00156253
0.00121274
0.000915651
0.000666416
0.000460907
0.000295645
0.000167752
7.48975e-05
1.52665e-05
-1.24816e-05
-9.26192e-06
-0.0566066
-0.0254651
-0.00217355
0.0138677
0.0240621
0.0298373
0.0324458
0.0328948
0.0319467
0.030153
0.0278981
0.0254405
0.0229483
0.0205262
0.0182356
0.0161091
0.0141606
0.0123921
0.0107981
0.0093692
0.00809379
0.00695935
0.00595336
0.00506372
0.00427907
0.00358892
0.00298371
0.00245482
0.00199451
0.00159592
0.001253
0.000960415
0.000713549
0.000508405
0.000341568
0.000210161
0.000111798
4.45437e-05
6.87881e-06
-2.36083e-06
-0.0663963
-0.0374362
-0.0147033
0.00186998
0.0132221
0.0204277
0.0245062
0.0263297
0.026596
0.0258363
0.0244399
0.0226835
0.0207575
0.0187895
0.0168615
0.0150241
0.0133058
0.0117209
0.0102735
0.00896198
0.00778073
0.00672202
0.00577705
0.00493667
0.00419181
0.00353376
0.00295438
0.00244613
0.00200215
0.00161622
0.00128279
0.000996935
0.000754286
0.000551041
0.000383894
0.000250008
0.000146969
7.27531e-05
2.56849e-05
4.37445e-06
-0.0736135
-0.0469501
-0.0251844
-0.00858273
0.0034426
0.0116712
0.0169075
0.0198838
0.0212178
0.0214025
0.0208165
0.0197408
0.0183785
0.0168725
0.015321
0.0137891
0.0123183
0.0109335
0.00964833
0.00846824
0.00739367
0.00642169
0.00554735
0.00476454
0.00406663
0.00344685
0.00289857
0.00241548
0.00199166
0.00162167
0.00130054
0.00102376
0.00078733
0.000587672
0.000421637
0.000286463
0.000179746
9.94012e-05
4.36278e-05
1.08375e-05
-0.0787658
-0.0543927
-0.0338386
-0.0175684
-0.0052522
0.00365244
0.00976145
0.0136734
0.0159198
0.0169449
0.0171043
0.0166728
0.0158575
0.01481
0.0136395
0.0124222
0.0112105
0.0100385
0.00892788
0.00789105
0.00693409
0.00605875
0.00526388
0.00454645
0.00390233
0.00332679
0.0028148
0.00236136
0.00196159
0.00161087
0.00130489
0.00103966
0.000811561
0.000617298
0.00045392
0.000318783
0.000209526
0.000124039
6.04253e-05
1.6931e-05
-0.0822772
-0.0601119
-0.0408967
-0.025204
-0.0128886
-0.00359355
0.00313813
0.00778317
0.0107879
0.0125426
0.0133719
0.0135368
0.0132405
0.0126379
0.0118444
0.0109442
0.00999763
0.00904664
0.00811977
0.00723555
0.00640528
0.0056351
0.00492753
0.00428259
0.00369863
0.00317295
0.00270223
0.0022828
0.00191089
0.00158277
0.00129484
0.00104366
0.000826062
0.000639078
0.000479996
0.000346325
0.000235784
0.00014627
7.58264e-05
2.25677e-05
-0.0844984
-0.064413
-0.0465822
-0.0316251
-0.0195255
-0.0100682
-0.00292637
0.00226987
0.005887
0.00825998
0.00967869
0.0103842
0.0105709
0.0103916
0.00996406
0.00937709
0.00869664
0.00797068
0.0072334
0.00650854
0.00581202
0.005154
0.00454042
0.00397419
0.0034561
0.00298547
0.00256066
0.00217938
0.00183899
0.0015367
0.00126965
0.00103503
0.000830125
0.000652346
0.000499256
0.000368554
0.000258074
0.000165755
8.96148e-05
2.76724e-05
-0.0857158
-0.0675584
-0.0511017
-0.0369722
-0.0252408
-0.0157983
-0.00842218
-0.00283333
0.00126249
0.00414696
0.00607344
0.00725998
0.00788799
0.00810447
0.00802595
0.00774309
0.00732521
0.00682447
0.00627944
0.00571811
0.00516035
0.00461985
0.00410566
0.0036234
0.00317614
0.00276517
0.00239048
0.00205117
0.00174575
0.00147237
0.00122895
0.00101331
0.000823264
0.000656617
0.000511239
0.000385054
0.000276042
0.00018222
0.000101612
3.21822e-05
-0.0861614
-0.0697702
-0.0546408
-0.0413822
-0.0301217
-0.0208274
-0.0133588
-0.00751212
-0.00305662
0.000239981
0.00259499
0.00420181
0.00522636
0.00580692
0.00605614
0.006064
0.0059012
0.00562243
0.00526936
0.00487327
0.00445724
0.00403798
0.00362727
0.00323316
0.00286086
0.00251351
0.00219265
0.00189875
0.00163144
0.00138983
0.00117262
0.000978305
0.000805211
0.000651586
0.000515631
0.000395525
0.000289423
0.000195451
0.000111678
3.60476e-05
-0.0860218
-0.0712343
-0.0573628
-0.0449834
-0.0342577
-0.0252088
-0.0177592
-0.0117668
-0.00705502
-0.00343626
-0.00072741
0.00124013
0.00261536
0.00352593
0.0040785
0.00436042
0.00444201
0.004379
0.00421498
0.00398355
0.00371029
0.00341437
0.0031099
0.00280705
0.00251298
0.00223249
0.00196863
0.00172313
0.00149674
0.00128949
0.00110088
0.000930063
0.000775916
0.000637131
0.00051227
0.000399788
0.000298045
0.000205305
0.000119713
3.92324e-05
-0.0854457
-0.0721051
-0.059409
-0.0478928
-0.0377363
-0.0290004
-0.0216554
-0.0156083
-0.0107283
-0.0068671
-0.00387299
-0.00160146
7.91418e-05
0.00128466
0.00211432
0.00265131
0.0029641
0.00310822
0.00312808
0.00305872
0.00292751
0.00275551
0.00255874
0.0023492
0.00213571
0.00192461
0.0017203
0.00152573
0.00134267
0.00117207
0.00101421
0.000868883
0.000735532
0.000613306
0.000501139
0.000397782
0.000301827
0.000211701
0.000125659
4.17139e-05
-0.0845511
-0.0725095
-0.0609005
-0.0502151
-0.0406401
-0.0322615
-0.0250845
-0.0190552
-0.0140806
-0.010046
-0.00682836
-0.00430559
-0.00236317
-0.000897564
0.00018208
0.000953657
0.00148269
0.00182341
0.00202011
0.00210849
0.00211702
0.00206813
0.00197932
0.00186408
0.00173266
0.00159273
0.00144993
0.00130829
0.00117057
0.00103857
0.000913331
0.000795282
0.00068441
0.000580328
0.000482357
0.00038956
0.000300777
0.000214625
0.000129492
4.34826e-05
-0.0834311
-0.0725516
-0.0619402
-0.0520427
-0.0430455
-0.0350499
-0.0280864
-0.0221312
-0.0171221
-0.0129732
-0.00958634
-0.00686037
-0.00469704
-0.00300511
-0.0017026
-0.00071763
1.15049e-05
0.00053691
0.000901954
0.00114228
0.00128687
0.00135904
0.00137734
0.00135642
0.00130771
0.00124002
0.00116007
0.00107285
0.000982054
0.000890261
0.000799215
0.00070998
0.000623074
0.00053857
0.000456176
0.00037528
0.000294985
0.000214119
0.000131231
4.45416e-05
-0.0821587
-0.072316
-0.0626146
-0.0534562
-0.0450216
-0.0374206
-0.0307012
-0.0248626
-0.0198673
-0.0156535
-0.0121448
-0.00925862
-0.00691206
-0.00502581
-0.00352686
-0.00234979
-0.00143731
-0.000740072
-0.00021628
0.000169062
0.00044491
0.000634989
0.000758551
0.000831086
0.000864941
0.000869869
0.000853491
0.000821694
0.000778949
0.000728588
0.000673012
0.000613874
0.000552209
0.000488541
0.000422966
0.0003552
0.000284622
0.000210287
0.000130927
4.49059e-05
-0.0807911
-0.0718716
-0.0629964
-0.0545252
-0.0466304
-0.0394249
-0.0329685
-0.0272774
-0.0223338
-0.0180957
-0.0145055
-0.011497
-0.0090014
-0.0069506
-0.00528045
-0.00393218
-0.00285324
-0.00199754
-0.00132535
-0.000802802
-0.000401419
-9.74676e-05
0.000128646
0.000292962
0.000408506
0.000485773
0.000533142
0.000557244
0.000563262
0.00055519
0.00053604
0.000508013
0.000472638
0.000430876
0.000383203
0.000329667
0.000269928
0.000203282
0.000128662
4.46014e-05
-0.0793725
-0.071274
-0.0631461
-0.0553096
-0.0479267
-0.0411096
-0.0349258
-0.0294037
-0.0245407
-0.0203113
-0.0166734
-0.0135755
-0.0109613
-0.00877317
-0.00695552
-0.00545612
-0.00422738
-0.00322677
-0.00241695
-0.00176562
-0.00124513
-0.000832083
-0.000506859
-0.000253133
-5.74262e-05
9.13074e-05
0.000202053
0.000282062
0.00033713
0.000371837
0.000389748
0.000393572
0.000385302
0.000366315
0.000337457
0.000299105
0.000251206
0.000193304
0.000124549
4.36639e-05
-0.077937
-0.070568
-0.063114
-0.0558607
-0.0489585
-0.0425174
-0.0366084
-0.0312688
-0.026508
-0.0223131
-0.0186557
-0.0154965
-0.0127904
-0.0104896
-0.00854632
-0.00691478
-0.00555236
-0.00442024
-0.00348377
-0.00271244
-0.00207977
-0.00156298
-0.00114269
-0.000802519
-0.000528749
-0.000309957
-0.0001367
-1.22644e-06
0.000102775
0.000180395
0.000235689
0.000271829
0.000291237
0.000295685
0.000286377
0.000264008
0.000228814
0.000180594
0.000118726
4.21383e-05
-0.076511
-0.0697895
-0.062942
-0.0562219
-0.0497681
-0.0436862
-0.0380489
-0.0328993
-0.0282555
-0.0241153
-0.020461
-0.0172643
-0.0144896
-0.0120979
-0.010049
-0.00830298
-0.00682222
-0.00557165
-0.00451943
-0.00363708
-0.00289948
-0.00228472
-0.00177387
-0.00135071
-0.00100148
-0.000714509
-0.000480054
-0.000289971
-0.00013753
-1.72064e-05
7.54845e-05
0.000144132
0.000191553
0.000219886
0.000230674
0.000224926
0.000203159
0.00016543
0.000111354
4.00764e-05
-0.0751143
-0.0689673
-0.0626646
-0.0564301
-0.0503919
-0.04465
-0.039277
-0.0343198
-0.0298029
-0.0257322
-0.0220992
-0.0188845
-0.0160612
-0.0135979
-0.0114612
-0.00961701
-0.00803232
-0.00667581
-0.00551851
-0.0045341
-0.00369899
-0.00299231
-0.00239577
-0.00189349
-0.00147178
-0.00111894
-0.000824996
-0.000581538
-0.000381503
-0.000219008
-8.91974e-05
1.1886e-05
8.74148e-05
0.000139869
0.000171112
0.000182451
0.000174681
0.000148115
0.000102609
3.75369e-05
-0.073762
-0.0681245
-0.06231
-0.0565166
-0.0508614
-0.0454388
-0.0403198
-0.0355534
-0.0311688
-0.0271783
-0.0235806
-0.0203639
-0.0175087
-0.0149905
-0.012782
-0.0108544
-0.00917914
-0.00772852
-0.00647644
-0.00539878
-0.00447362
-0.00368123
-0.00300412
-0.00242687
-0.00193605
-0.00151997
-0.0011686
-0.000873343
-0.000626881
-0.000423047
-0.000256672
-0.00012348
-1.99786e-05
5.66247e-05
0.000108492
0.000137213
0.000143852
0.000128977
9.26845e-05
3.45832e-05
-0.0724654
-0.0672793
-0.0619018
-0.0565076
-0.0512038
-0.0460788
-0.0412014
-0.0366214
-0.032371
-0.0284676
-0.0249157
-0.0217097
-0.0188366
-0.0162778
-0.0140115
-0.0120138
-0.0102602
-0.00872651
-0.00738946
-0.00622713
-0.00521927
-0.00434745
-0.00359504
-0.00294722
-0.00239088
-0.00191451
-0.00150807
-0.00116288
-0.000871448
-0.000627383
-0.000425261
-0.000260529
-0.000129412
-2.88376e-05
4.3634e-05
8.98607e-05
0.000111164
0.000108359
8.17834e-05
3.12825e-05
-0.0712324
-0.0664462
-0.0614592
-0.0564253
-0.0514425
-0.0465933
-0.0419435
-0.037543
-0.0334261
-0.0296137
-0.026115
-0.0229296
-0.0200499
-0.0174626
-0.0151507
-0.0130946
-0.0112738
-0.00966734
-0.00825455
-0.00701576
-0.00593242
-0.0049874
-0.00416504
-0.00345117
-0.00283312
-0.00229963
-0.00184074
-0.00144774
-0.00111306
-0.000830124
-0.00059331
-0.000397834
-0.000239673
-0.000115501
-2.2627e-05
4.10578e-05
7.71197e-05
8.66153e-05
7.0116e-05
2.77047e-05
-0.0700692
-0.0656367
-0.0609979
-0.0562884
-0.0515976
-0.0470022
-0.0425653
-0.0383358
-0.0343493
-0.0306293
-0.0271886
-0.0240313
-0.0211541
-0.0185483
-0.0162012
-0.0140972
-0.0122192
-0.0105492
-0.00906934
-0.00776189
-0.00661004
-0.00559796
-0.00471099
-0.00393569
-0.00325989
-0.00267262
-0.00216409
-0.00172565
-0.00134966
-0.00102944
-0.00075921
-0.000533995
-0.000349561
-0.000202356
-8.94592e-05
-8.52993e-06
4.2229e-05
6.4104e-05
5.78959e-05
2.39208e-05
-0.0689796
-0.0648598
-0.0605308
-0.0561123
-0.051686
-0.0473232
-0.0430838
-0.0390155
-0.0351546
-0.0315263
-0.0281464
-0.0250223
-0.0221547
-0.0195386
-0.0171651
-0.0150222
-0.0130959
-0.011371
-0.00983202
-0.00846326
-0.00724956
-0.0061764
-0.00523012
-0.00439804
-0.00366853
-0.00303097
-0.00247581
-0.00199446
-0.00157929
-0.00122358
-0.000921411
-0.000667659
-0.000457908
-0.000288412
-0.000156041
-5.82426e-05
6.99762e-06
4.11839e-05
4.53379e-05
2.00025e-05
-0.0679665
-0.0641224
-0.0600684
-0.0559102
-0.0517224
-0.0475714
-0.0435139
-0.0395963
-0.0358547
-0.0323158
-0.0289975
-0.0259101
-0.0230573
-0.0204375
-0.018045
-0.0158709
-0.0139041
-0.012132
-0.0105413
-0.00911808
-0.00784887
-0.0067204
-0.00572001
-0.00483579
-0.00405666
-0.0033724
-0.00277372
-0.00225215
-0.00180013
-0.00141089
-0.00107843
-0.000797523
-0.000563587
-0.000372709
-0.000221574
-0.000107434
-2.80769e-05
1.82084e-05
3.26537e-05
1.60206e-05
-0.0670316
-0.0634299
-0.0596194
-0.0556929
-0.0517192
-0.0477599
-0.0438688
-0.0400905
-0.0364611
-0.033008
-0.0297507
-0.0267017
-0.0238674
-0.021249
-0.0188435
-0.0166449
-0.0146444
-0.012832
-0.0111961
-0.00972494
-0.00840623
-0.007228
-0.00617856
-0.00524678
-0.00442213
-0.00369483
-0.00305584
-0.00249689
-0.00201046
-0.00158981
-0.00122889
-0.000922353
-0.000665522
-0.000454325
-0.000285286
-0.000155481
-6.2512e-05
-4.47845e-06
2.00502e-05
1.20443e-05
-0.0661757
-0.0627867
-0.0591906
-0.0554695
-0.0516868
-0.0479
-0.0441598
-0.0405093
-0.0369841
-0.033612
-0.0304138
-0.0274037
-0.0245902
-0.0219769
-0.0195634
-0.0173457
-0.0153176
-0.0134709
-0.0117961
-0.0102828
-0.00892023
-0.00769753
-0.00660396
-0.00562912
-0.00476305
-0.00399639
-0.00332039
-0.00272697
-0.00220871
-0.0017589
-0.00137146
-0.00104099
-0.000762695
-0.000532387
-0.000346444
-0.000201785
-9.5845e-05
-2.65462e-05
7.72678e-06
8.14031e-06
-0.0653994
-0.0621958
-0.0587877
-0.0552477
-0.0516343
-0.0480013
-0.0443968
-0.0408624
-0.0374328
-0.0341361
-0.030994
-0.0280222
-0.0252307
-0.0226253
-0.0202074
-0.0179753
-0.0159247
-0.0140492
-0.0123408
-0.0107909
-0.00938974
-0.00812762
-0.00699467
-0.00598117
-0.00507774
-0.00427541
-0.00356575
-0.00294085
-0.00239344
-0.00191683
-0.00150495
-0.00115235
-0.000854159
-0.000606076
-0.000404358
-0.000245784
-0.000127638
-4.76811e-05
-4.1273e-06
4.37229e-06
-0.0647025
-0.0616598
-0.0584152
-0.0550336
-0.0515691
-0.0480722
-0.0445885
-0.0411582
-0.0378152
-0.0345878
-0.031498
-0.0285628
-0.0257936
-0.0231977
-0.0207783
-0.0185355
-0.0164667
-0.0145671
-0.0128303
-0.0112486
-0.00981388
-0.00851714
-0.00734937
-0.00630152
-0.00536472
-0.00453042
-0.00379046
-0.00313716
-0.00256334
-0.00206239
-0.00162826
-0.00125545
-0.000939037
-0.000674633
-0.000458385
-0.000286952
-0.000157481
-6.75894e-05
-1.53343e-05
7.9986e-07
-0.0640848
-0.0611803
-0.0580769
-0.0548324
-0.0514974
-0.0481196
-0.0447422
-0.0414041
-0.0381385
-0.0349735
-0.0319317
-0.0290306
-0.026283
-0.0236974
-0.0212787
-0.0190282
-0.0169449
-0.0150253
-0.0132644
-0.0116558
-0.010192
-0.00886517
-0.00766697
-0.00658895
-0.00562274
-0.00476014
-0.00399327
-0.00331465
-0.00271724
-0.0021945
-0.00174038
-0.00134939
-0.00101653
-0.000737365
-0.000507939
-0.000324807
-0.000184999
-8.6e-05
-2.57301e-05
-2.52179e-06
-0.0635459
-0.0607588
-0.0577756
-0.0546484
-0.0514246
-0.0481493
-0.0448642
-0.0416064
-0.0384087
-0.035299
-0.0323
-0.0294301
-0.0267027
-0.0241277
-0.0217109
-0.0194551
-0.0173603
-0.0154245
-0.0136435
-0.012012
-0.0105236
-0.00917099
-0.00794658
-0.00684247
-0.0058507
-0.00496343
-0.00417305
-0.00347225
-0.00285412
-0.00231219
-0.00184043
-0.00143335
-0.00108593
-0.000793647
-0.000552488
-0.000358913
-0.000209848
-0.000102667
-3.51654e-05
-5.54242e-06
-0.0630853
-0.0603963
-0.0575138
-0.054485
-0.0513549
-0.0481664
-0.0449596
-0.0417704
-0.0386311
-0.0355691
-0.0326076
-0.0297652
-0.0270562
-0.0244912
-0.0220771
-0.0198177
-0.0177141
-0.0157652
-0.0139677
-0.0123173
-0.0108083
-0.009434
-0.00818745
-0.0070612
-0.00604769
-0.00513937
-0.00432886
-0.00360903
-0.00297309
-0.00241461
-0.00192763
-0.00150664
-0.00114659
-0.000842928
-0.000591562
-0.000388881
-0.000231726
-0.000117371
-4.35071e-05
-8.21723e-06
-0.0627024
-0.0600933
-0.0572931
-0.0543449
-0.0512918
-0.0481749
-0.0450328
-0.0419006
-0.03881
-0.0357881
-0.0328583
-0.0300394
-0.0273464
-0.0247904
-0.0223793
-0.0201176
-0.0180073
-0.016048
-0.0142374
-0.0125717
-0.0110458
-0.00965376
-0.008389
-0.00724447
-0.00621295
-0.00528715
-0.0044599
-0.0037242
-0.00307337
-0.00250106
-0.00200132
-0.00156865
-0.00119798
-0.000884731
-0.000624754
-0.000414377
-0.000250367
-0.000129921
-5.06392e-05
-1.05072e-05
-0.0623967
-0.0598505
-0.057115
-0.0542305
-0.0512382
-0.048178
-0.0450873
-0.0420006
-0.0389489
-0.0359593
-0.033055
-0.0302553
-0.0275755
-0.0250273
-0.0226191
-0.020356
-0.0182407
-0.0162735
-0.0144527
-0.012775
-0.011236
-0.00982993
-0.00855075
-0.00739171
-0.00634586
-0.00540613
-0.0045655
-0.00381711
-0.00315435
-0.00257093
-0.00206094
-0.00161887
-0.00123965
-0.000918656
-0.000651721
-0.000435116
-0.000265551
-0.000140157
-5.6464e-05
-1.23793e-05
-0.0621679
-0.0596682
-0.0569806
-0.0541432
-0.0511962
-0.0481781
-0.0451258
-0.0420731
-0.0390506
-0.0360853
-0.0332004
-0.0304154
-0.0277457
-0.0252036
-0.0227977
-0.0205339
-0.0184151
-0.0164422
-0.014614
-0.0129275
-0.0113787
-0.00996226
-0.00867235
-0.00750251
-0.00644596
-0.0054958
-0.00464515
-0.00388723
-0.00321551
-0.00262374
-0.00210603
-0.00165688
-0.00127121
-0.000944383
-0.000672189
-0.000450871
-0.000277097
-0.000147948
-6.09025e-05
-1.38069e-05
-0.0620156
-0.0595465
-0.0568906
-0.0540844
-0.0511673
-0.0481772
-0.0451504
-0.0421203
-0.0391173
-0.0361683
-0.0332964
-0.0305211
-0.0278583
-0.0253204
-0.0229162
-0.020652
-0.0185311
-0.0165545
-0.0147214
-0.0130291
-0.0114738
-0.0100506
-0.00875356
-0.00757654
-0.00651288
-0.00555578
-0.00469846
-0.00393419
-0.0032565
-0.00265915
-0.00213629
-0.0016824
-0.00129241
-0.000961669
-0.00068595
-0.000461471
-0.00028487
-0.000153197
-6.38948e-05
-1.477e-05
-0.0619394
-0.0594856
-0.0568454
-0.0540548
-0.0511526
-0.0481765
-0.0451624
-0.0421436
-0.0391503
-0.0362094
-0.033344
-0.0305737
-0.0279144
-0.0253786
-0.0229753
-0.0207109
-0.0185889
-0.0166106
-0.014775
-0.0130799
-0.0115214
-0.0100947
-0.0087942
-0.00761361
-0.00654639
-0.00558584
-0.00472518
-0.00395774
-0.00327705
-0.00267692
-0.00215147
-0.00169521
-0.00130306
-0.000970352
-0.000692866
-0.000466799
-0.000288779
-0.000155838
-6.5401e-05
-1.52549e-05
-0.343533
-0.334336
-0.316232
-0.289817
-0.255967
-0.215816
-0.170719
-0.122199
-0.0721521
-0.0244059
-0.313091
-0.305698
-0.29111
-0.269742
-0.242206
-0.209303
-0.172007
-0.131416
-0.0889003
-0.0478158
-0.286238
-0.280263
-0.268453
-0.251108
-0.228669
-0.20171
-0.170922
-0.137082
-0.101178
-0.0657755
-0.262576
-0.257713
-0.248086
-0.233915
-0.215522
-0.193324
-0.167828
-0.13961
-0.109396
-0.0789918
-0.241719
-0.237732
-0.229832
-0.218181
-0.203019
-0.184658
-0.163474
-0.139902
-0.114478
-0.0884061
-0.223309
-0.220018
-0.21349
-0.203849
-0.191276
-0.17601
-0.158335
-0.138584
-0.117156
-0.0948172
-0.207029
-0.204293
-0.198862
-0.190832
-0.180343
-0.16758
-0.152762
-0.136148
-0.118039
-0.0988928
-0.192599
-0.19031
-0.185761
-0.179028
-0.170224
-0.159491
-0.147005
-0.132967
-0.11761
-0.101178
-0.179779
-0.17785
-0.174014
-0.168333
-0.160895
-0.151816
-0.141237
-0.129319
-0.116241
-0.102108
-0.168361
-0.166724
-0.163468
-0.158642
-0.152319
-0.144594
-0.13558
-0.125408
-0.114221
-0.102031
-0.158166
-0.156767
-0.153984
-0.149859
-0.14445
-0.137837
-0.130112
-0.121383
-0.111767
-0.101217
-0.14904
-0.147837
-0.145444
-0.141895
-0.137239
-0.131543
-0.124884
-0.117352
-0.109044
-0.0998767
-0.140854
-0.139813
-0.137741
-0.134668
-0.130635
-0.125699
-0.119924
-0.113389
-0.106172
-0.0981737
-0.133494
-0.132587
-0.130782
-0.128104
-0.12459
-0.120286
-0.115249
-0.109545
-0.103242
-0.0962322
-0.126864
-0.126069
-0.124486
-0.122138
-0.119057
-0.115282
-0.110862
-0.105856
-0.100319
-0.0941468
-0.12088
-0.120179
-0.118783
-0.116712
-0.113993
-0.110662
-0.106762
-0.102341
-0.0974512
-0.0919891
-0.115472
-0.114849
-0.113611
-0.111772
-0.109359
-0.106402
-0.10294
-0.099014
-0.0946704
-0.0898127
-0.110577
-0.110021
-0.108915
-0.107273
-0.105119
-0.102478
-0.0993861
-0.0958799
-0.0919995
-0.0876572
-0.106141
-0.105641
-0.104648
-0.103173
-0.101238
-0.0988671
-0.0960896
-0.0929398
-0.0894535
-0.0855516
-0.102118
-0.101666
-0.100768
-0.0994365
-0.0976885
-0.0955464
-0.0930372
-0.0901915
-0.0870414
-0.0835168
-0.0984674
-0.0980559
-0.0972399
-0.0960299
-0.0944419
-0.0924958
-0.0902161
-0.0876305
-0.084768
-0.0815674
-0.0951532
-0.0947766
-0.0940307
-0.0929252
-0.0914742
-0.0896963
-0.0876134
-0.0852509
-0.0826352
-0.0797133
-0.0921447
-0.0917982
-0.0911126
-0.0900968
-0.0887637
-0.0871304
-0.0852168
-0.0830461
-0.0806426
-0.0779611
-0.0894151
-0.0890944
-0.0884607
-0.0875222
-0.0862908
-0.0847821
-0.0830144
-0.081009
-0.0787884
-0.0763145
-0.0869405
-0.0866421
-0.0860532
-0.0851815
-0.084038
-0.0826368
-0.0809952
-0.0791325
-0.0770697
-0.0747753
-0.0847003
-0.0844211
-0.083871
-0.0830571
-0.0819895
-0.0806814
-0.0791488
-0.0774095
-0.0754831
-0.073344
-0.0826761
-0.0824136
-0.0818971
-0.0811332
-0.0801314
-0.078904
-0.0774656
-0.0758332
-0.0740246
-0.0720201
-0.0808521
-0.080604
-0.0801166
-0.0793961
-0.0784513
-0.0772938
-0.0759371
-0.074397
-0.0726904
-0.0708022
-0.0792143
-0.0789786
-0.0785165
-0.0778336
-0.0769382
-0.0758411
-0.0745551
-0.0730949
-0.0714764
-0.0696887
-0.0777505
-0.0775256
-0.0770853
-0.0764349
-0.0755824
-0.0745376
-0.0733126
-0.0719214
-0.0703788
-0.0686776
-0.0764499
-0.0762343
-0.0758129
-0.0751907
-0.0743751
-0.0733754
-0.0722031
-0.0708712
-0.0693938
-0.067767
-0.0753033
-0.0750958
-0.0746907
-0.0740927
-0.0733089
-0.0723481
-0.0712209
-0.0699398
-0.068518
-0.0669545
-0.0743027
-0.0741021
-0.073711
-0.0731338
-0.0723772
-0.0714496
-0.0703609
-0.069123
-0.0677483
-0.0662384
-0.0734413
-0.0732465
-0.0728673
-0.0723079
-0.0715745
-0.0706749
-0.0696188
-0.0684171
-0.0670819
-0.0656165
-0.0727132
-0.0725234
-0.0721543
-0.0716098
-0.0708958
-0.0700198
-0.0689908
-0.0678191
-0.0665164
-0.0650873
-0.0721136
-0.0719279
-0.0715672
-0.0710352
-0.0703373
-0.0694806
-0.0684737
-0.0673263
-0.0660495
-0.0646492
-0.0716385
-0.0714563
-0.0711025
-0.0705805
-0.0698956
-0.0690544
-0.068065
-0.0669366
-0.0656796
-0.0643009
-0.0712849
-0.0711054
-0.070757
-0.0702431
-0.0695683
-0.0687389
-0.0677626
-0.0666482
-0.0654053
-0.0640414
-0.0710505
-0.0708731
-0.0705288
-0.0700208
-0.0693534
-0.0685325
-0.0675653
-0.0664599
-0.0652256
-0.06387
-0.0709337
-0.0707578
-0.0704164
-0.0699124
-0.0692499
-0.0684342
-0.067472
-0.066371
-0.0651399
-0.063786
-0.0118332
-0.0176597
-0.0260566
-0.0369895
-0.0509519
-0.0682348
-0.0886455
-0.110981
-0.132218
-0.146592
-0.0651143
-0.0753816
-0.0879681
-0.102969
-0.120729
-0.141342
-0.164388
-0.188477
-0.210578
-0.225234
-0.120523
-0.134181
-0.15017
-0.168526
-0.18941
-0.212725
-0.237867
-0.263323
-0.286089
-0.300974
-0.174958
-0.191493
-0.210304
-0.231407
-0.25482
-0.280294
-0.307087
-0.333602
-0.35688
-0.37195
-0.226028
-0.245004
-0.266161
-0.289501
-0.314941
-0.34212
-0.370198
-0.397528
-0.421196
-0.436415
-0.271747
-0.292729
-0.315794
-0.340924
-0.367961
-0.396467
-0.425532
-0.45348
-0.477441
-0.492778
-0.310431
-0.332988
-0.357548
-0.384064
-0.412323
-0.441833
-0.471635
-0.50004
-0.524217
-0.539645
-0.340696
-0.364414
-0.390074
-0.417602