/*--------------------------------*- C++ -*----------------------------------*\
  =========                 |
  \\      /  F ield         | OpenFOAM: The Open Source CFD Toolbox
   \\    /   O peration     | Website:  https://openfoam.org
    \\  /    A nd           | Version:  6
     \\/     M anipulation  |
\*---------------------------------------------------------------------------*/
FoamFile
{
    version     2.0;
    format      ascii;
    class       volVectorField;
    location    "0";
    object      U;
}
// * * * * * * * * * * * * * * * * * * * * * * * * * * * * * * * * * * * * * //

dimensions      [0 1 -1 0 0 0 0];

internalField   nonuniform List<vector> 
5200
(
(1.08555 -0.915256 7.69713e-20)
(1.0736 -0.763193 0)
(1.06436 -0.646081 5.31739e-20)
(1.05707 -0.553974 2.93868e-20)
(1.05121 -0.480224 -7.98055e-20)
(1.04643 -0.420252 -1.43769e-20)
(1.04249 -0.370819 -8.82869e-21)
(1.0392 -0.329578 0)
(1.03645 -0.294791 -5.31026e-20)
(1.03418 -0.265146 0)
(1.22787 -0.892729 8.04432e-20)
(1.19229 -0.744398 -1.2486e-20)
(1.16485 -0.630159 -2.54963e-20)
(1.14325 -0.54031 -1.65733e-20)
(1.12594 -0.468366 -1.27207e-19)
(1.11186 -0.409865 -1.41952e-19)
(1.10025 -0.361651 -1.39393e-19)
(1.09056 -0.321448 -5.80711e-20)
(1.08239 -0.287589 -5.47431e-20)
(1.07544 -0.25885 -5.01465e-20)
(1.36492 -0.848224 -1.43759e-21)
(1.30658 -0.707277 -3.73562e-21)
(1.26162 -0.598724 -7.44086e-20)
(1.22625 -0.513346 -1.41356e-19)
(1.19791 -0.444982 -6.67156e-20)
(1.17487 -0.389391 -6.39335e-20)
(1.15587 -0.343574 -6.16405e-20)
(1.14003 -0.305366 -5.97281e-20)
(1.12667 -0.27317 5.98139e-20)
(1.11528 -0.245785 -5.8512e-20)
(1.49333 -0.782834 -2.52919e-21)
(1.41367 -0.652742 -3.28611e-21)
(1.35229 -0.55255 0)
(1.30401 -0.473747 -1.60471e-19)
(1.26535 -0.410646 -1.4094e-20)
(1.23391 -0.359333 0)
(1.208 -0.317039 0)
(1.18639 -0.281761 0)
(1.16819 -0.252023 6.11341e-20)
(1.1527 -0.226708 -1.60578e-19)
(1.60994 -0.698166 4.64738e-20)
(1.51091 -0.582135 4.10581e-20)
(1.43463 -0.492772 4.10371e-20)
(1.37463 -0.422486 -1.156e-19)
(1.32658 -0.366205 3.70186e-20)
(1.28752 -0.320435 3.55657e-20)
(1.25534 -0.282708 0)
(1.22851 -0.251237 3.33701e-20)
(1.20591 -0.224705 8.40993e-23)
(1.1867 -0.20212 3.48466e-21)
(1.71187 -0.596303 4.90534e-20)
(1.59592 -0.497193 4.74505e-20)
(1.5066 -0.420862 4.55253e-20)
(1.43635 -0.360826 -3.54121e-20)
(1.38011 -0.312752 4.77934e-20)
(1.33439 -0.273655 4.73735e-20)
(1.29673 -0.241428 0)
(1.26533 -0.214545 3.39116e-20)
(1.23889 -0.191881 -3.30144e-20)
(1.21642 -0.172592 3.69631e-20)
(1.7966 -0.479752 0)
(1.66658 -0.400006 0)
(1.56643 -0.338589 2.692e-21)
(1.48767 -0.290284 3.37268e-21)
(1.42462 -0.251602 3.91784e-21)
(1.37336 -0.220144 4.36136e-21)
(1.33113 -0.194214 -9.45429e-21)
(1.29594 -0.172583 -1.0065e-20)
(1.26631 -0.154349 1.05803e-20)
(1.24112 -0.138831 4.41765e-20)
(1.86206 -0.35138 2.56699e-20)
(1.72117 -0.292966 0)
(1.61265 -0.247979 2.40475e-20)
(1.52731 -0.212595 1.15273e-26)
(1.45899 -0.18426 -2.27369e-20)
(1.40346 -0.161217 0)
(1.35771 -0.142223 0)
(1.31958 -0.126379 0)
(1.28748 -0.113023 7.60693e-21)
(1.2602 -0.101658 7.92268e-21)
(1.90662 -0.214351 2.58997e-20)
(1.75833 -0.178709 1.17753e-20)
(1.64412 -0.15126 2.23283e-20)
(1.5543 -0.129671 1.05688e-20)
(1.48239 -0.112383 -9.15839e-21)
(1.42395 -0.098323 9.44957e-22)
(1.3758 -0.0867335 0)
(1.33568 -0.0770662 -9.064e-21)
(1.3019 -0.068917 -6.53886e-21)
(1.27319 -0.0619828 2.38776e-21)
(1.92919 -0.0720384 0)
(1.77715 -0.0600488 1.20372e-20)
(1.66005 -0.0508157 0)
(1.56796 -0.0435535 1.05542e-20)
(1.49424 -0.0377379 9.90125e-21)
(1.43432 -0.033008 -1.58081e-22)
(1.38497 -0.0291088 0)
(1.34383 -0.0258561 -9.09184e-21)
(1.3092 -0.023114 -8.8564e-21)
(1.27976 -0.0207806 -1.99746e-22)
(0.0982508 -0.0720377 0)
(0.25031 -0.0600726 -5.38893e-22)
(0.367388 -0.0508596 0)
(0.45945 -0.0436156 1.01076e-21)
(0.533151 -0.0378176 1.26104e-21)
(0.593072 -0.0331055 -4.00691e-21)
(0.64245 -0.0292249 -4.34228e-21)
(0.683627 -0.0259927 5.39047e-22)
(0.71833 -0.0232748 5.39678e-21)
(0.747862 -0.0209742 5.05822e-21)
(0.120788 -0.214338 -2.48304e-21)
(0.269101 -0.178738 3.1799e-22)
(0.383294 -0.151326 -2.83821e-21)
(0.473087 -0.129772 -1.12818e-21)
(0.54497 -0.11252 -5.5436e-21)
(0.603412 -0.0984995 -7.96418e-21)
(0.65157 -0.0869519 0)
(0.691722 -0.0773304 8.90157e-22)
(0.72555 -0.0692329 8.5344e-22)
(0.754304 -0.0623599 0)
(0.165306 -0.351358 -5.05363e-21)
(0.30622 -0.292999 0)
(0.414714 -0.248063 -1.39128e-20)
(0.500025 -0.21273 2.29278e-27)
(0.568319 -0.18445 1.78068e-20)
(0.623842 -0.161464 0)
(0.669594 -0.142532 0)
(0.707741 -0.126755 0)
(0.739883 -0.113467 -3.81385e-20)
(0.767218 -0.102169 -3.97113e-20)
(0.23071 -0.479723 0)
(0.360754 -0.400043 6.46784e-21)
(0.460876 -0.338689 -3.43074e-27)
(0.539602 -0.290446 -1.19399e-20)
(0.602622 -0.251833 -1.3868e-20)
(0.653857 -0.220449 1.54355e-20)
(0.696075 -0.1946 6.69082e-20)
(0.731279 -0.173058 3.56078e-20)
(0.760945 -0.154917 -3.74226e-20)
(0.78618 -0.139494 -4.91471e-20)
(0.315387 -0.596271 -1.82031e-20)
(0.431359 -0.497233 -2.32305e-20)
(0.520643 -0.42097 -2.52328e-20)
(0.590843 -0.361005 3.53064e-21)
(0.647036 -0.313008 -4.15847e-20)
(0.692717 -0.274 -4.41369e-20)
(0.730359 -0.241872 0)
(0.761747 -0.2151 -1.32878e-20)
(0.788202 -0.192559 1.29978e-20)
(0.810713 -0.173402 5.19457e-20)
(0.417252 -0.698134 -1.94621e-20)
(0.516299 -0.582175 -1.38317e-20)
(0.592545 -0.492881 -1.84889e-20)
(0.652489 -0.422667 5.38262e-20)
(0.700466 -0.366468 -1.64427e-20)
(0.739465 -0.320792 -1.57034e-20)
(0.771595 -0.283176 0)
(0.798386 -0.251837 -1.45878e-20)
(0.820967 -0.225458 -5.6438e-20)
(0.84019 -0.203051 -5.68236e-20)
(0.533799 -0.782805 4.51253e-21)
(0.613482 -0.652778 5.86279e-21)
(0.674814 -0.552649 0)
(0.723024 -0.473913 1.04714e-19)
(0.761603 -0.41089 2.51386e-20)
(0.792952 -0.359668 0)
(0.81877 -0.317486 0)
(0.840288 -0.282347 0)
(0.858417 -0.252783 -3.59985e-20)
(0.873853 -0.227691 1.38381e-19)
(0.662159 -0.848201 2.15021e-21)
(0.720519 -0.707306 5.5872e-21)
(0.765428 -0.598804 5.06512e-20)
(0.800719 -0.513481 9.44478e-20)
(0.828948 -0.44518 4.59377e-20)
(0.851874 -0.389665 4.42335e-20)
(0.870737 -0.343942 4.28293e-20)
(0.886432 -0.305853 4.16589e-20)
(0.899621 -0.273814 -3.81377e-20)
(0.910816 -0.246651 3.71992e-20)
(0.799173 -0.892714 -6.29044e-20)
(0.834777 -0.744417 1.58321e-20)
(0.862159 -0.630211 2.98854e-20)
(0.883664 -0.540397 1.79533e-20)
(0.900854 -0.468495 1.0028e-19)
(0.9148 -0.410042 1.21425e-19)
(0.926253 -0.361885 1.202e-19)
(0.935742 -0.321747 4.39272e-20)
(0.943635 -0.28796 4.50924e-20)
(0.950154 -0.259296 6.34956e-20)
(0.941471 -0.91525 -7.08742e-20)
(0.953444 -0.763199 0)
(0.962628 -0.646099 -6.05242e-20)
(0.969822 -0.554004 -3.8761e-20)
(0.975558 -0.480268 7.53054e-20)
(0.980197 -0.420312 4.72986e-21)
(0.983995 -0.370895 -1.1128e-21)
(0.987135 -0.329663 0)
(0.989753 -0.294861 4.70006e-20)
(0.99196 -0.265127 0)
(0.782364 -0.0171364 0)
(0.820565 -0.0128971 9.57892e-24)
(0.849809 -0.0100249 7.09808e-24)
(0.872795 -0.00794109 -5.9086e-21)
(0.891184 -0.00639192 4.18456e-24)
(0.906118 -0.00521595 6.13808e-21)
(0.918403 -0.00430711 2.14251e-24)
(0.928623 -0.00359363 1.52141e-24)
(0.937209 -0.00302571 6.34808e-21)
(0.944483 -0.00256806 6.39643e-21)
(0.950695 -0.0021952 -6.43866e-21)
(0.956034 -0.00188837 -6.47519e-21)
(0.960651 -0.00163359 0)
(0.964665 -0.00142028 0)
(0.968171 -0.00124033 5.36743e-25)
(0.971247 -0.00108745 -6.71277e-25)
(0.973955 -0.00095673 6.59779e-21)
(0.976348 -0.000844268 1.32282e-20)
(0.978467 -0.00074696 9.94289e-21)
(0.980349 -0.000662308 3.32073e-21)
(0.982024 -0.000588284 0)
(0.983516 -0.000523233 0)
(0.984847 -0.000465791 0)
(0.986036 -0.000414829 -1.26526e-24)
(0.987097 -0.000369405 0)
(0.988044 -0.000328729 0)
(0.988889 -0.000292132 -3.34879e-21)
(0.989641 -0.000259046 4.58803e-26)
(0.990308 -0.000228986 3.35359e-21)
(0.990899 -0.000201532 1.4539e-24)
(0.991418 -0.000176322 0)
(0.991873 -0.000153038 -1.68023e-21)
(0.992266 -0.0001314 -1.6809e-21)
(0.992602 -0.00011116 1.53324e-24)
(0.992885 -9.20957e-05 0)
(0.993116 -7.40051e-05 8.41194e-22)
(0.993299 -5.67036e-05 8.42929e-22)
(0.993435 -4.00197e-05 -1.59486e-24)
(0.993524 -2.37923e-05 -2.10387e-22)
(0.993569 -7.862e-06 -2.10396e-22)
(0.787262 -0.0510327 -2.10385e-20)
(0.823725 -0.0385065 -2.20281e-20)
(0.851955 -0.0299775 2.39951e-23)
(0.874298 -0.0237702 0)
(0.892264 -0.0191463 4.15336e-23)
(0.906912 -0.0156314 1.17534e-23)
(0.918998 -0.0129122 9.4303e-24)
(0.929077 -0.0107758 7.60422e-24)
(0.937561 -0.00907438 1.55787e-23)
(0.944761 -0.00770274 0)
(0.950917 -0.00658484 -1.10893e-24)
(0.956214 -0.00566471 -2.5808e-20)
(0.9608 -0.00490055 -2.59394e-20)
(0.964789 -0.00426069 1.30296e-20)
(0.968276 -0.00372085 1.30757e-20)
(0.971337 -0.0032622 -1.3124e-20)
(0.974033 -0.00287001 -1.3162e-20)
(0.976416 -0.00253259 1.32001e-20)
(0.978528 -0.00224065 1.32314e-20)
(0.980403 -0.00198667 -2.849e-24)
(0.982073 -0.00176459 3.2358e-24)
(0.983561 -0.00156943 -1.33076e-20)
(0.984888 -0.0013971 2.22611e-24)
(0.986074 -0.00124423 1.33476e-20)
(0.987133 -0.00110797 0)
(0.988078 -0.000985952 0)
(0.988921 -0.000876179 -6.68964e-21)
(0.989671 -0.000776943 -1.34017e-20)
(0.990337 -0.000686784 -6.70681e-21)
(0.990926 -0.000604446 6.36993e-24)
(0.991445 -0.000528838 0)
(0.991898 -0.000459008 0)
(0.992291 -0.000394117 0)
(0.992627 -0.000333418 -3.36116e-21)
(0.992909 -0.000276244 -3.36929e-21)
(0.99314 -0.000221989 -5.9192e-24)
(0.993322 -0.000170098 1.4845e-24)
(0.993457 -0.000120057 -1.52711e-24)
(0.993547 -7.13811e-05 8.41562e-22)
(0.993591 -2.35919e-05 8.416e-22)
(0.79727 -0.0838376 0)
(0.83033 -0.0635382 1.00193e-22)
(0.856492 -0.0496147 0)
(0.877502 -0.0394216 0)
(0.894582 -0.0317984 4.81978e-23)
(0.908625 -0.0259872 0)
(0.920289 -0.0214819 -2.45102e-20)
(0.930067 -0.0179368 -2.47874e-20)
(0.938333 -0.0151101 2.50989e-20)
(0.945372 -0.0128293 5.054e-20)
(0.951407 -0.0109692 -3.17536e-23)
(0.956614 -0.00943748 -2.55967e-20)
(0.961129 -0.0081649 -2.57794e-20)
(0.965064 -0.00709903 -2.58865e-20)
(0.968509 -0.00619961 1.8202e-24)
(0.971536 -0.00543538 2.61173e-20)
(0.974205 -0.00478181 -1.65341e-23)
(0.976566 -0.0042195 -2.62725e-20)
(0.97866 -0.00373297 -2.63606e-20)
(0.980522 -0.00330971 -5.28386e-20)
(0.982179 -0.00293962 1.48358e-23)
(0.983657 -0.00261441 2.65217e-20)
(0.984977 -0.00232726 0)
(0.986155 -0.00207254 -2.58943e-24)
(0.987208 -0.00184552 0)
(0.988148 -0.00164225 1.33542e-20)
(0.988987 -0.00145938 1.33695e-20)
(0.989733 -0.00129408 1.33788e-20)
(0.990396 -0.00114391 1.33946e-20)
(0.990983 -0.00100678 4.57605e-24)
(0.991499 -0.000880861 0)
(0.991951 -0.000764568 7.59714e-24)
(0.992341 -0.000656503 0)
(0.992676 -0.00055542 -6.7151e-21)
(0.992956 -0.000460204 -6.73049e-21)
(0.993186 -0.000369846 2.60787e-24)
(0.993368 -0.000283417 0)
(0.993503 -0.00020006 8.56735e-24)
(0.993591 -0.000118965 -8.41592e-22)
(0.993636 -3.9332e-05 -8.4163e-22)
(0.812006 -0.114871 -4.07852e-20)
(0.84012 -0.0875964 -4.25063e-20)
(0.863253 -0.068707 0)
(0.882291 -0.0547604 0)
(0.898053 -0.0442679 0)
(0.911192 -0.0362342 4.75472e-20)
(0.922224 -0.0299858 -1.65457e-22)
(0.931552 -0.0250572 -4.88456e-20)
(0.93949 -0.0211202 -2.36233e-23)
(0.946288 -0.0179392 0)
(0.952142 -0.0153423 -5.03631e-20)
(0.957211 -0.0132022 -5.0642e-20)
(0.961622 -0.0114232 5.10639e-20)
(0.965475 -0.00993254 1.02616e-19)
(0.968856 -0.00867429 -6.88579e-23)
(0.971833 -0.00760494 -2.58532e-20)
(0.974462 -0.00669032 -2.72712e-23)
(0.976791 -0.00590336 3.00927e-23)
(0.978858 -0.00522241 2.61813e-20)
(0.980698 -0.00463004 2.62918e-20)
(0.982338 -0.00411209 5.26832e-20)
(0.983801 -0.00365698 5.28131e-20)
(0.985108 -0.00325517 2.64618e-20)
(0.986276 -0.00289875 -2.65457e-20)
(0.98732 -0.00258114 -2.6558e-20)
(0.988253 -0.00229678 0)
(0.989085 -0.00204099 0)
(0.989827 -0.00180979 -5.80744e-24)
(0.990485 -0.00159978 1.33939e-20)
(0.991067 -0.00140802 1.33857e-20)
(0.99158 -0.00123195 1.75437e-23)
(0.992029 -0.00106935 2.5186e-23)
(0.992417 -0.000918254 0)
(0.992749 -0.000776923 2.66943e-23)
(0.993028 -0.000643791 6.7046e-21)
(0.993256 -0.000517441 6.75377e-21)
(0.993437 -0.000396571 0)
(0.99357 -0.000279977 2.92452e-23)
(0.993658 -0.000166521 -2.1199e-23)
(0.993702 -5.50816e-05 2.15775e-23)
(0.831162 -0.143469 7.86952e-20)
(0.852965 -0.110313 3.53094e-22)
(0.872185 -0.0870407 4.32054e-20)
(0.888645 -0.0696625 8.88614e-20)
(0.902669 -0.0564817 4.54539e-20)
(0.914613 -0.0463291 1.3482e-22)
(0.924804 -0.0383977 -1.09839e-22)
(0.933531 -0.032121 8.6224e-23)
(0.941032 -0.0270947 -1.40201e-22)
(0.947507 -0.0230261 5.50717e-23)
(0.95312 -0.0196999 -4.36667e-23)
(0.958007 -0.016956 3.42517e-23)
(0.962277 -0.0146732 0)
(0.966022 -0.0127594 5.07412e-20)
(0.969318 -0.0111434 5.08991e-20)
(0.972227 -0.00976954 9.55935e-24)
(0.974803 -0.00859428 7.76777e-24)
(0.977088 -0.00758296 2.03343e-24)
(0.979121 -0.00670784 -1.28183e-24)
(0.980932 -0.00594657 -2.26672e-24)
(0.982548 -0.00528097 -2.61878e-20)
(0.983992 -0.00469616 -2.6245e-20)
(0.985282 -0.00417989 9.69472e-24)
(0.986437 -0.00372201 2.64218e-20)
(0.987469 -0.00331402 2.64742e-20)
(0.988392 -0.0029488 -1.3941e-23)
(0.989216 -0.00262032 -2.66027e-20)
(0.98995 -0.00232347 -2.66396e-20)
(0.990602 -0.00205385 1.47377e-23)
(0.991179 -0.00180768 -1.78747e-23)
(0.991687 -0.00158168 1.63612e-23)
(0.992132 -0.00137299 1.34033e-20)
(0.992517 -0.00117908 1.3431e-20)
(0.992846 -0.000997693 -2.29417e-24)
(0.993122 -0.000826823 -1.89501e-23)
(0.993349 -0.000664641 -6.72839e-21)
(0.993527 -0.00050947 -6.72735e-21)
(0.99366 -0.000359754 -2.29604e-24)
(0.993747 -0.000214026 1.66235e-21)
(0.99379 -7.08397e-05 1.68117e-21)
(0.854326 -0.16901 -2.54975e-25)
(0.86869 -0.131337 4.23943e-22)
(0.883214 -0.104405 -3.32082e-22)
(0.896533 -0.0840043 0)
(0.90842 -0.068367 8.83416e-20)
(0.918881 -0.056229 1.8078e-19)
(0.928027 -0.0466922 9.18166e-20)
(0.936003 -0.0391129 2.79045e-25)
(0.942958 -0.0330243 -8.90563e-23)
(0.949029 -0.0280841 7.21717e-23)
(0.95434 -0.0240383 -5.83356e-23)
(0.958998 -0.0206962 4.68996e-23)
(0.963092 -0.0179131 -3.70842e-23)
(0.966701 -0.0155782 4.99738e-20)
(0.969891 -0.0136055 5.01408e-20)
(0.972716 -0.0119279 1.68602e-23)
(0.975225 -0.0104925 0)
(0.977457 -0.00925718 5.12423e-20)
(0.979446 -0.00818816 1.02836e-19)
(0.981221 -0.00725823 5.15965e-20)
(0.982808 -0.00644521 1.95981e-24)
(0.984227 -0.00573095 2.93342e-25)
(0.985498 -0.00510049 6.58092e-24)
(0.986635 -0.0045414 -2.62638e-20)
(0.987653 -0.00404332 -2.6292e-20)
(0.988564 -0.00359753 2.64219e-20)
(0.989377 -0.00319666 2.64571e-20)
(0.990102 -0.00283445 2.65412e-20)
(0.990746 -0.00250552 -4.10962e-23)
(0.991317 -0.00220525 -2.66459e-20)
(0.99182 -0.00192962 0)
(0.992259 -0.00167512 -1.83499e-23)
(0.99264 -0.00143865 -2.9584e-25)
(0.992966 -0.00121746 -1.99176e-23)
(0.993239 -0.00100909 1.34166e-20)
(0.993463 -0.000811286 1.3441e-20)
(0.99364 -0.000621999 -2.22475e-23)
(0.993771 -0.000439318 -3.38866e-21)
(0.993857 -0.000261443 -3.38986e-21)
(0.993899 -8.66003e-05 -2.37716e-23)
(0.880979 -0.190924 7.3848e-20)
(0.887074 -0.150338 -4.89407e-22)
(0.896243 -0.120596 -8.07091e-20)
(0.905915 -0.0976636 -1.65407e-19)
(0.915288 -0.0798517 -8.5035e-20)
(0.923992 -0.0658913 0)
(0.93189 -0.0548444 0)
(0.938968 -0.0460184 -1.32898e-22)
(0.945266 -0.0389004 0)
(0.950852 -0.0331081 -9.07925e-23)
(0.9558 -0.0283541 0)
(0.960182 -0.0244206 4.80432e-20)
(0.964066 -0.0211411 4.82558e-20)
(0.967512 -0.0183874 -4.05433e-23)
(0.970574 -0.0160595 3.25873e-23)
(0.973299 -0.014079 -2.5816e-23)
(0.975727 -0.0123839 -5.02285e-20)
(0.977895 -0.0109249 -5.03163e-20)
(0.979832 -0.00966229 -5.08855e-20)
(0.981565 -0.00856396 -5.09766e-20)
(0.983116 -0.00760378 -3.6569e-24)
(0.984507 -0.00676035 -5.17161e-20)
(0.985753 -0.00601599 -1.03754e-19)
(0.98687 -0.00535602 -5.20186e-20)
(0.987871 -0.00476818 -6.05719e-24)
(0.988767 -0.00424217 -2.62903e-20)
(0.989568 -0.00376927 -2.63219e-20)
(0.990282 -0.00334206 2.64698e-20)
(0.990918 -0.00295418 5.30384e-20)
(0.991481 -0.00260017 2.65799e-20)
(0.991976 -0.00227526 -2.66791e-20)
(0.99241 -0.00197529 -2.66918e-20)
(0.992786 -0.0016966 -1.85858e-23)
(0.993108 -0.00143593 -1.74648e-23)
(0.993378 -0.00119034 -2.03155e-23)
(0.993599 -0.000957183 4.02088e-23)
(0.993773 -0.000734018 6.7064e-21)
(0.993903 -0.000518577 6.7498e-21)
(0.993988 -0.000308721 -4.46211e-23)
(0.994029 -0.000102351 0)
(0.910494 -0.208689 0)
(0.907848 -0.167014 7.29785e-20)
(0.911152 -0.135417 7.58785e-20)
(0.916742 -0.110521 -7.92263e-20)
(0.923257 -0.0908648 -8.07789e-20)
(0.929939 -0.0752748 8.406e-20)
(0.936392 -0.0628304 8.52111e-20)
(0.942424 -0.0528239 8.10672e-23)
(0.947956 -0.0447154 -8.93554e-20)
(0.952975 -0.0380936 -9.02847e-20)
(0.957498 -0.0326447 0)
(0.961558 -0.0281275 3.90596e-23)
(0.965195 -0.0243562 0)
(0.968451 -0.0211861 -2.27654e-23)
(0.971364 -0.0185044 4.0853e-23)
(0.973972 -0.0162218 -3.30607e-23)
(0.976307 -0.0142675 4.93392e-20)
(0.9784 -0.0125852 9.92758e-20)
(0.980276 -0.0111292 4.98836e-20)
(0.98196 -0.00986271 5.0525e-20)
(0.983471 -0.00875565 5.06138e-20)
(0.984828 -0.00778334 4.38782e-24)
(0.986047 -0.0069254 2.92355e-24)
(0.98714 -0.0061649 1.3086e-24)
(0.988121 -0.00548768 -3.6251e-24)
(0.989001 -0.00488185 5.13277e-24)
(0.989787 -0.00433733 0)
(0.99049 -0.00384554 2.6368e-20)
(0.991114 -0.00339915 2.63776e-20)
(0.991668 -0.00299182 0)
(0.992156 -0.00261805 2.66182e-20)
(0.992584 -0.00227303 2.6631e-20)
(0.992954 -0.00195252 -2.67542e-20)
(0.993271 -0.00165273 -4.01754e-20)
(0.993537 -0.00137029 -2.6834e-20)
(0.993755 -0.0011021 -1.34145e-20)
(0.993927 -0.000845354 6.72012e-21)
(0.994054 -0.00059741 1.34815e-20)
(0.994138 -0.00035579 6.71209e-21)
(0.994179 -0.000118069 -8.68101e-24)
(0.942468 -0.221909 6.53506e-20)
(0.931133 -0.181103 -3.01943e-22)
(0.928189 -0.148668 -7.21933e-20)
(0.929275 -0.12244 -1.4891e-19)
(0.932555 -0.101319 -7.62352e-20)
(0.936912 -0.0843246 2.72444e-22)
(0.941683 -0.070616 1.14716e-22)
(0.946488 -0.0595078 8.43185e-20)
(0.951118 -0.0504554 8.5148e-20)
(0.955466 -0.0430319 8.77384e-20)
(0.959485 -0.0369042 8.84392e-20)
(0.963164 -0.0318128 -9.07147e-20)
(0.966509 -0.027555 -9.12476e-20)
(0.969539 -0.0239719 -3.60483e-24)
(0.972277 -0.0209381 0)
(0.974746 -0.0183544 -2.60098e-23)
(0.976972 -0.0161416 -4.83507e-20)
(0.978978 -0.0142364 -9.73789e-20)
(0.980784 -0.0125874 -4.89808e-20)
(0.98241 -0.0111531 0)
(0.983874 -0.00989945 0)
(0.985192 -0.00879863 -3.66279e-24)
(0.986379 -0.00782751 5.09679e-20)
(0.987445 -0.00696691 5.10324e-20)
(0.988404 -0.00620077 -5.16309e-20)
(0.989264 -0.00551559 -5.16809e-20)
(0.990034 -0.00489994 -3.13745e-24)
(0.990723 -0.00434408 0)
(0.991336 -0.00383968 2.63474e-20)
(0.991879 -0.00337953 -8.93512e-23)
(0.992359 -0.0029574 -2.64696e-20)
(0.992779 -0.0025678 0)
(0.993143 -0.00220593 -6.57741e-24)
(0.993454 -0.00186748 0)
(0.993716 -0.0015486 -8.81262e-24)
(0.993931 -0.00124578 -6.7684e-24)
(0.9941 -0.000955801 -1.34645e-20)
(0.994225 -0.000675671 -1.34596e-20)
(0.994308 -0.000402558 4.50367e-24)
(0.994349 -0.000133718 -8.65601e-24)
(0.978994 -0.230607 0)
(0.958992 -0.192121 -3.20462e-22)
(0.948761 -0.159942 -2.66004e-22)
(0.944425 -0.133125 -7.03211e-20)
(0.94375 -0.111017 -1.44576e-19)
(0.945252 -0.0929141 1.33114e-21)
(0.947964 -0.0781215 1.54696e-19)
(0.951276 -0.0660202 7.90346e-20)
(0.954817 -0.0560891 0)
(0.958361 -0.0479027 -8.40245e-20)
(0.961783 -0.0411195 -8.46735e-20)
(0.965012 -0.0354677 -5.50515e-23)
(0.968016 -0.0307316 0)
(0.970784 -0.02674 -9.05909e-20)
(0.973319 -0.023357 -9.09692e-20)
(0.975629 -0.0204739 -2.95958e-23)
(0.97773 -0.0180037 0)
(0.979635 -0.0158762 4.78599e-20)
(0.98136 -0.0140347 4.79866e-20)
(0.982921 -0.0124331 0)
(0.984331 -0.0110334 0)
(0.985605 -0.00980451 -1.14692e-23)
(0.986754 -0.00872072 -5.03711e-20)
(0.98779 -0.00776054 3.46619e-22)
(0.988722 -0.00690603 -3.2701e-22)
(0.98956 -0.00614208 -1.02767e-19)
(0.990312 -0.00545589 -5.1593e-20)
(0.990984 -0.00483655 0)
(0.991583 -0.00427473 -2.07022e-24)
(0.992115 -0.00376236 -2.63617e-20)
(0.992584 -0.00329245 -2.6377e-20)
(0.992995 -0.00285886 0)
(0.993352 -0.00245618 2.66681e-20)
(0.993658 -0.0020796 5.34251e-20)
(0.993915 -0.0017248 2.67521e-20)
(0.994125 -0.00138782 0)
(0.994291 -0.00106506 -3.38126e-24)
(0.994415 -0.000753147 -3.91031e-24)
(0.994496 -0.00044889 4.42616e-24)
(0.994537 -0.000149226 0)
(1.01118 -0.221667 0)
(0.985812 -0.18933 0)
(0.970628 -0.160592 0)
(0.962028 -0.135714 0)
(0.95781 -0.114595 0)
(0.95645 -0.0968918 0)
(0.956894 -0.0821489 0)
(0.958427 -0.0699018 0)
(0.960577 -0.0597243 0)
(0.963034 -0.0512478 0)
(0.965602 -0.0441639 0)
(0.968159 -0.0382194 0)
(0.97063 -0.033208 0)
(0.972972 -0.028963 0)
(0.975165 -0.0253497 0)
(0.977199 -0.0222589 0)
(0.979075 -0.0196023 0)
(0.980795 -0.017308 0)
(0.982369 -0.0153174 0)
(0.983803 -0.0135825 0)
(0.985108 -0.0120636 0)
(0.986294 -0.0107279 0)
(0.987369 -0.00954824 0)
(0.988341 -0.00850186 0)
(0.98922 -0.0075696 0)
(0.990012 -0.00673533 0)
(0.990725 -0.00598533 0)
(0.991363 -0.00530787 0)
(0.991934 -0.00469289 0)
(0.992441 -0.00413169 0)
(0.992889 -0.00361669 0)
(0.993282 -0.00314124 0)
(0.993624 -0.00269947 0)
(0.993917 -0.00228614 0)
(0.994163 -0.00189652 0)
(0.994365 -0.00152632 0)
(0.994525 -0.00117158 0)
(0.994644 -0.000828602 0)
(0.994723 -0.000493899 0)
(0.994762 -0.000164107 0)
(1.03156 -0.198005 0)
(1.00624 -0.174114 0)
(0.989254 -0.151131 0)
(0.97838 -0.130238 0)
(0.971858 -0.111833 0)
(0.968363 -0.0959304 0)
(0.966925 -0.0823474 0)
(0.966847 -0.0708198 0)
(0.967641 -0.0610642 0)
(0.968969 -0.0528119 0)
(0.970603 -0.0458227 0)
(0.972386 -0.0398896 0)
(0.974217 -0.0348377 0)
(0.97603 -0.0305209 0)
(0.977783 -0.0268183 0)
(0.979451 -0.0236298 0)
(0.981019 -0.0208729 0)
(0.982482 -0.0184794 0)
(0.983838 -0.016393 0)
(0.985089 -0.0145669 0)
(0.986238 -0.0129621 0)
(0.987291 -0.0115461 0)
(0.988252 -0.0102918 0)
(0.989128 -0.00917599 0)
(0.989923 -0.00817943 0)
(0.990643 -0.00728557 0)
(0.991294 -0.00648033 0)
(0.991879 -0.0057516 0)
(0.992403 -0.00508894 0)
(0.992871 -0.00448328 0)
(0.993285 -0.00392669 0)
(0.993649 -0.00341218 0)
(0.993966 -0.00293356 0)
(0.994238 -0.00248529 0)
(0.994467 -0.00206237 0)
(0.994656 -0.00166021 0)
(0.994805 -0.00127461 0)
(0.994916 -0.000901603 0)
(0.994989 -0.000537461 0)
(0.995026 -0.000178577 0)
(1.04605 -0.175704 0)
(1.02177 -0.158362 0)
(1.00428 -0.140441 0)
(0.992172 -0.123297 0)
(0.984125 -0.107599 0)
(0.979067 -0.093604 0)
(0.976155 -0.0813366 0)
(0.974753 -0.070695 0)
(0.97439 -0.0615196 0)
(0.974725 -0.0536328 0)
(0.975514 -0.0468601 0)
(0.976585 -0.0410414 0)
(0.977816 -0.0360349 0)
(0.979124 -0.0317175 0)
(0.980451 -0.0279844 0)
(0.98176 -0.0247467 0)
(0.983025 -0.0219296 0)
(0.984232 -0.0194701 0)
(0.98537 -0.0173154 0)
(0.986435 -0.015421 0)
(0.987426 -0.0137495 0)
(0.988342 -0.0122693 0)
(0.989187 -0.0109537 0)
(0.989962 -0.00977998 0)
(0.99067 -0.00872883 0)
(0.991316 -0.00778368 0)
(0.991901 -0.00693032 0)
(0.99243 -0.00615646 0)
(0.992906 -0.00545146 0)
(0.993332 -0.004806 0)
(0.993711 -0.00421192 0)
(0.994044 -0.003662 0)
(0.994335 -0.0031498 0)
(0.994585 -0.00266954 0)
(0.994796 -0.002216 0)
(0.99497 -0.00178437 0)
(0.995107 -0.00137022 0)
(0.995209 -0.00096939 0)
(0.995277 -0.000577928 0)
(0.995311 -0.000192029 0)
(1.05587 -0.155169 0)
(1.03329 -0.142951 0)
(1.01615 -0.129293 0)
(1.00357 -0.115507 0)
(0.994635 -0.102362 0)
(0.988508 -0.0902612 0)
(0.984497 -0.0793693 0)
(0.982047 -0.0697076 0)
(0.980728 -0.0612169 0)
(0.980214 -0.0537981 0)
(0.980261 -0.0473362 0)
(0.98069 -0.0417154 0)
(0.981369 -0.0368265 0)
(0.982205 -0.0325703 0)
(0.98313 -0.028859 0)
(0.984095 -0.0256162 0)
(0.985066 -0.022776 0)
(0.986021 -0.0202816 0)
(0.986944 -0.0180847 0)
(0.987824 -0.016144 0)
(0.988656 -0.0144244 0)
(0.989436 -0.0128956 0)
(0.990162 -0.0115322 0)
(0.990834 -0.0103119 0)
(0.991454 -0.00921585 0)
(0.992023 -0.00822778 0)
(0.992542 -0.00733352 0)
(0.993013 -0.00652082 0)
(0.993439 -0.00577894 0)
(0.993822 -0.00509849 0)
(0.994163 -0.00447118 0)
(0.994464 -0.00388962 0)
(0.994727 -0.00334724 0)
(0.994954 -0.00283808 0)
(0.995146 -0.00235673 0)
(0.995305 -0.00189824 0)
(0.99543 -0.001458 0)
(0.995523 -0.00103166 0)
(0.995585 -0.000615123 0)
(0.995616 -0.000204398 0)
(1.06215 -0.136662 0)
(1.04161 -0.128388 0)
(1.02533 -0.118222 0)
(1.01283 -0.107338 0)
(1.00349 -0.0965109 0)
(0.996704 -0.0862072 0)
(0.991921 -0.0766781 0)
(0.988677 -0.0680311 0)
(0.986593 -0.0602837 0)
(0.985372 -0.0534003 0)
(0.984782 -0.0473174 0)
(0.984647 -0.0419588 0)
(0.984831 -0.0372459 0)
(0.985235 -0.0331024 0)
(0.985785 -0.029458 0)
(0.986426 -0.0262489 0)
(0.987117 -0.0234188 0)
(0.98783 -0.0209179 0)
(0.988543 -0.0187032 0)
(0.989242 -0.016737 0)
(0.989917 -0.0149869 0)
(0.990561 -0.0134248 0)
(0.991169 -0.0120264 0)
(0.991738 -0.0107706 0)
(0.992269 -0.00963937 0)
(0.992759 -0.00861668 0)
(0.99321 -0.00768875 0)
(0.993623 -0.0068435 0)
(0.993997 -0.00607028 0)
(0.994335 -0.00535973 0)
(0.994638 -0.00470351 0)
(0.994906 -0.0040942 0)
(0.995141 -0.00352513 0)
(0.995345 -0.00299024 0)
(0.995517 -0.00248402 0)
(0.995659 -0.00200138 0)
(0.995772 -0.00153759 0)
(0.995856 -0.00108818 0)
(0.995912 -0.000648896 0)
(0.99594 -0.000215633 0)
(1.06585 -0.12023 0)
(1.04743 -0.114939 0)
(1.0323 -0.107572 0)
(1.02023 -0.0991362 0)
(1.01084 -0.0903518 0)
(1.00372 -0.0816975 0)
(0.998439 -0.0734679 0)
(0.994623 -0.0658254 0)
(0.991951 -0.058842 0)
(0.99016 -0.0525316 0)
(0.989037 -0.0468723 0)
(0.988415 -0.0418224 0)
(0.988163 -0.0373302 0)
(0.988179 -0.033341 0)
(0.988387 -0.0298008 0)
(0.988727 -0.0266587 0)
(0.989156 -0.0238678 0)
(0.989639 -0.021386 0)
(0.990151 -0.0191754 0)
(0.990675 -0.0172028 0)
(0.991197 -0.0154388 0)
(0.991707 -0.0138576 0)
(0.992198 -0.0124366 0)
(0.992665 -0.0111562 0)
(0.993107 -0.00999899 0)
(0.993519 -0.00894982 0)
(0.993902 -0.00799534 0)
(0.994255 -0.00712379 0)
(0.994577 -0.00632475 0)
(0.99487 -0.00558899 0)
(0.995133 -0.00490824 0)
(0.995368 -0.00427511 0)
(0.995574 -0.0036829 0)
(0.995753 -0.00312554 0)
(0.995905 -0.00259743 0)
(0.996031 -0.00209344 0)
(0.996131 -0.00160872 0)
(0.996205 -0.00113873 0)
(0.996255 -0.000679126 0)
(0.996279 -0.000225693 0)
(1.06768 -0.105783 0)
(1.05132 -0.10271 0)
(1.03746 -0.0975507 0)
(1.02604 -0.0911397 0)
(1.01687 -0.0841162 0)
(1.00965 -0.0769378 0)
(1.0041 -0.0699123 0)
(0.999895 -0.0632318 0)
(0.99679 -0.0570044 0)
(0.994554 -0.0512798 0)
(0.992997 -0.0460688 0)
(0.991966 -0.0413578 0)
(0.991337 -0.0371185 0)
(0.991011 -0.0333153 0)
(0.990911 -0.0299093 0)
(0.990977 -0.0268618 0)
(0.991162 -0.0241351 0)
(0.991429 -0.0216944 0)
(0.991752 -0.0195077 0)
(0.992109 -0.0175459 0)
(0.992483 -0.0157831 0)
(0.992863 -0.0141961 0)
(0.993241 -0.0127642 0)
(0.993608 -0.0114692 0)
(0.993961 -0.010295 0)
(0.994296 -0.00922725 0)
(0.994611 -0.00825313 0)
(0.994904 -0.00736141 0)
(0.995175 -0.00654199 0)
(0.995422 -0.00578588 0)
(0.995646 -0.00508496 0)
(0.995846 -0.00443194 0)
(0.996023 -0.00382018 0)
(0.996177 -0.00324362 0)
(0.996309 -0.00269667 0)
(0.996417 -0.00217414 0)
(0.996504 -0.00167118 0)
(0.996569 -0.00118318 0)
(0.996612 -0.000705725 0)
(0.996634 -0.000234548 0)
(1.06819 -0.0931565 0)
(1.05375 -0.0917098 0)
(1.04117 -0.0882661 0)
(1.03053 -0.0835035 0)
(1.02174 -0.0779716 0)
(1.01462 -0.0720883 0)
(1.00895 -0.0661537 0)
(1.00452 -0.0603715 0)
(1.00112 -0.0548709 0)
(0.998548 -0.0497257 0)
(0.996648 -0.0449712 0)
(0.99528 -0.0406156 0)
(0.994332 -0.0366503 0)
(0.993709 -0.0330559 0)
(0.993337 -0.0298071 0)
(0.993157 -0.026876 0)
(0.993119 -0.0242341 0)
(0.993188 -0.0218534 0)
(0.993333 -0.0197076 0)
(0.993532 -0.0177719 0)
(0.993766 -0.016024 0)
(0.994022 -0.0144432 0)
(0.994289 -0.0130112 0)
(0.994559 -0.0117113 0)
(0.994826 -0.0105285 0)
(0.995085 -0.00944955 0)
(0.995333 -0.00846246 0)
(0.995567 -0.00755649 0)
(0.995786 -0.00672199 0)
(0.995988 -0.00595028 0)
(0.996172 -0.0052335 0)
(0.996338 -0.00456449 0)
(0.996486 -0.00393675 0)
(0.996615 -0.00334427 0)
(0.996725 -0.00278153 0)
(0.996817 -0.00224334 0)
(0.996891 -0.00172484 0)
(0.996946 -0.00122142 0)
(0.996982 -0.000728632 0)
(0.997001 -0.000242177 0)
(1.06778 -0.0821592 0)
(1.05508 -0.0818844 0)
(1.04375 -0.0797574 0)
(1.03393 -0.07632 0)
(1.02562 -0.0720339 0)
(1.01872 -0.067269 0)
(1.01308 -0.0623054 0)
(1.00855 -0.0573457 0)
(1.00496 -0.0525282 0)
(1.00215 -0.0479419 0)
(0.999985 -0.0436388 0)
(0.998348 -0.0396438 0)
(0.997135 -0.0359639 0)
(0.99626 -0.0325931 0)
(0.995651 -0.0295179 0)
(0.995252 -0.0267201 0)
(0.995014 -0.0241794 0)
(0.994902 -0.0218743 0)
(0.994883 -0.0197838 0)
(0.994934 -0.0178876 0)
(0.995036 -0.0161665 0)
(0.995174 -0.0146029 0)
(0.995336 -0.0131805 0)
(0.995513 -0.0118843 0)
(0.995696 -0.0107009 0)
(0.995881 -0.00961781 0)
(0.996063 -0.00862405 0)
(0.996239 -0.00770951 0)
(0.996407 -0.00686505 0)
(0.996564 -0.00608238 0)
(0.996709 -0.00535392 0)
(0.996841 -0.00467277 0)
(0.996959 -0.00403256 0)
(0.997063 -0.00342744 0)
(0.997153 -0.00285194 0)
(0.997228 -0.00230095 0)
(0.997288 -0.00176963 0)
(0.997333 -0.0012534 0)
(0.997363 -0.000747814 0)
(0.997378 -0.00024857 0)
(1.06674 -0.0725949 0)
(1.05559 -0.0731487 0)
(1.04544 -0.0720199 0)
(1.03645 -0.0696357 0)
(1.02868 -0.066378 0)
(1.02208 -0.0625664 0)
(1.01656 -0.058455 0)
(1.01202 -0.0542361 0)
(1.00833 -0.0500495 0)
(1.00537 -0.0459915 0)
(1.00301 -0.0421249 0)
(1.00117 -0.0384868 0)
(0.99974 -0.0350955 0)
(0.998653 -0.0319563 0)
(0.997842 -0.0290654 0)
(0.997251 -0.0264131 0)
(0.996836 -0.023986 0)
(0.99656 -0.0217689 0)
(0.996391 -0.0197457 0)
(0.996307 -0.0179001 0)
(0.996286 -0.0162164 0)
(0.996313 -0.0146796 0)
(0.996375 -0.0132755 0)
(0.996461 -0.0119911 0)
(0.996565 -0.0108141 0)
(0.996678 -0.00973353 0)
(0.996797 -0.00873903 0)
(0.996916 -0.0078213 0)
(0.997034 -0.00697176 0)
(0.997147 -0.00618257 0)
(0.997253 -0.00544651 0)
(0.997351 -0.00475695 0)
(0.997441 -0.00410774 0)
(0.99752 -0.00349318 0)
(0.997589 -0.00290793 0)
(0.997647 -0.00234698 0)
(0.997694 -0.00180556 0)
(0.997729 -0.00127912 0)
(0.997753 -0.000763265 0)
(0.997765 -0.000253723 0)
(1.0653 -0.0642778 0)
(1.05552 -0.065403 0)
(1.04645 -0.0650209 0)
(1.03826 -0.0634653 0)
(1.03105 -0.0610479 0)
(1.0248 -0.0580404 0)
(1.01947 -0.0546677 0)
(1.015 -0.0511076 0)
(1.01128 -0.047495 0)
(1.00823 -0.0439286 0)