/*--------------------------------*- C++ -*----------------------------------*\
  =========                 |
  \\      /  F ield         | OpenFOAM: The Open Source CFD Toolbox
   \\    /   O peration     | Website:  https://openfoam.org
    \\  /    A nd           | Version:  6
     \\/     M anipulation  |
\*---------------------------------------------------------------------------*/
FoamFile
{
    version     2.0;
    format      ascii;
    class       pointScalarField;
    location    "0";
    object      streamFunction;
}
// * * * * * * * * * * * * * * * * * * * * * * * * * * * * * * * * * * * * * //

dimensions      [0 3 -1 0 0 0 0];

internalField   nonuniform List<scalar> 
10742
(
0
0.0682921
0.131192
0.189938
0.245415
0.298275
0.349006
0.397982
0.445491
0.491765
0.536984
4e-08
0.0734408
0.141083
0.204258
0.263918
0.320764
0.375321
0.427991
0.479087
0.528859
0.577508
2e-08
0.0781374
0.150106
0.217321
0.280797
0.341279
0.399327
0.455367
0.509733
0.562689
0.614445
4e-08
0.0823528
0.158204
0.229046
0.295948
0.359694
0.420875
0.479941
0.537244
0.593059
0.64761
-2e-08
0.086061
0.165328
0.23936
0.309275
0.375894
0.439833
0.501562
0.561449
0.619784
0.676798
0
0.0892388
0.171433
0.248199
0.320698
0.389779
0.456081
0.520093
0.582197
0.642692
0.70182
2e-08
0.0918665
0.176481
0.255509
0.330143
0.40126
0.469517
0.535419
0.599356
0.661639
0.722516
3e-08
0.0939277
0.180441
0.261242
0.337553
0.410267
0.480058
0.547442
0.612818
0.676504
0.738753
3e-08
0.0954095
0.183288
0.265364
0.342879
0.416742
0.487637
0.556085
0.622496
0.687191
0.750427
4.3e-08
0.0963026
0.185003
0.267849
0.34609
0.420645
0.492204
0.561296
0.62833
0.693632
0.757463
-1.7e-08
0.0966015
0.185577
0.26868
0.347164
0.421951
0.493733
0.563039
0.630282
0.695788
0.759818
0
0.0682921
0.131192
0.189938
0.245415
0.298275
0.349006
0.397982
0.445491
0.491765
0.536984
4e-08
0.0734408
0.141083
0.204258
0.263918
0.320764
0.375321
0.427991
0.479087
0.528859
0.577508
2e-08
0.0781374
0.150106
0.217321
0.280797
0.341279
0.399327
0.455367
0.509733
0.562689
0.614445
4e-08
0.0823528
0.158204
0.229046
0.295948
0.359694
0.420875
0.479941
0.537244
0.593059
0.64761
-2e-08
0.086061
0.165328
0.23936
0.309275
0.375894
0.439833
0.501562
0.561449
0.619784
0.676798
0
0.0892388
0.171433
0.248199
0.320698
0.389779
0.456081
0.520093
0.582197
0.642692
0.70182
2e-08
0.0918665
0.176481
0.255509
0.330143
0.40126
0.469517
0.535419
0.599356
0.661639
0.722516
3e-08
0.0939277
0.180441
0.261242
0.337553
0.410267
0.480058
0.547442
0.612818
0.676504
0.738753
3e-08
0.0954095
0.183288
0.265364
0.342879
0.416742
0.487637
0.556085
0.622496
0.687191
0.750427
4.3e-08
0.0963026
0.185003
0.267849
0.34609
0.420645
0.492204
0.561296
0.62833
0.693632
0.757463
-1.7e-08
0.0966015
0.185577
0.26868
0.347164
0.421951
0.493733
0.563039
0.630282
0.695788
0.759818
0
0
-5e-08
1e-08
-5e-08
1e-08
-5e-08
-5e-08
-5e-08
3e-08
-5e-08
0
0.0075781
0.014558
0.0210774
0.0272346
0.0331021
0.0387341
0.0441724
0.0494495
0.0545914
0.0596194
-4e-08
0.0151094
0.0290262
0.0420245
0.0543008
0.0659993
0.0772282
0.0880708
0.0985912
0.108841
0.11886
-3e-08
0.0225473
0.0433149
0.0627118
0.0810311
0.0984881
0.115244
0.131424
0.147122
0.162416
0.177366
3e-08
0.0298459
0.057336
0.0830115
0.107261
0.130368
0.152547
0.173963
0.194742
0.214986
0.234775
4e-08
0.0369603
0.071003
0.102799
0.132827
0.161441
0.188906
0.215425
0.241155
0.266224
0.290729
-1e-08
0.0438467
0.0842319
0.121951
0.157573
0.191517
0.224097
0.255554
0.286075
0.31581
0.344879
-4e-08
0.0504627
0.0969413
0.140351
0.181347
0.220411
0.257903
0.294102
0.329222
0.363437
0.396885
-5e-08
0.0567677
0.109053
0.157886
0.204003
0.247945
0.290118
0.330834
0.370333
0.40881
0.446418
-2e-08
0.062723
0.120494
0.174449
0.225403
0.273953
0.320547
0.365529
0.409163
0.451659
0.493176
0
0
-5e-08
1e-08
-5e-08
1e-08
-5e-08
-5e-08
-5e-08
3e-08
-5e-08
0
0.0075781
0.014558
0.0210774
0.0272346
0.0331021
0.0387341
0.0441724
0.0494495
0.0545914
0.0596194
-4e-08
0.0151094
0.0290262
0.0420245
0.0543008
0.0659993
0.0772282
0.0880708
0.0985912
0.108841
0.11886
-3e-08
0.0225473
0.0433149
0.0627118
0.0810311
0.0984881
0.115244
0.131424
0.147122
0.162416
0.177366
3e-08
0.0298459
0.057336
0.0830115
0.107261
0.130368
0.152547
0.173963
0.194742
0.214986
0.234775
4e-08
0.0369603
0.071003
0.102799
0.132827
0.161441
0.188906
0.215425
0.241155
0.266224
0.290729
-1e-08
0.0438467
0.0842319
0.121951
0.157573
0.191517
0.224097
0.255554
0.286075
0.31581
0.344879
-4e-08
0.0504627
0.0969413
0.140351
0.181347
0.220411
0.257903
0.294102
0.329222
0.363437
0.396885
-5e-08
0.0567677
0.109053
0.157886
0.204003
0.247945
0.290118
0.330834
0.370333
0.40881
0.446418
-2e-08
0.062723
0.120494
0.174449
0.225403
0.273953
0.320547
0.365529
0.409163
0.451659
0.493176
1e-08
2e-08
2e-08
2e-08
-7e-08
-4.1e-08
-5.6e-08
-4.4e-08
2.3e-08
-4.6e-08
1.1e-08
-3e-08
-1.9e-08
-4.62e-08
-4.13e-08
-6.1e-09
-3.898e-08
-2.678e-08
1.422e-08
-3.888e-08
-2.028e-08
-3.8e-10
-2.608e-08
-7.408e-08
-1.108e-08
-6.708e-08
-5.08e-09
-5.08e-09
-4.608e-08
7.92e-09
1.992e-08
-1.208e-08
-4.808e-08
3.92e-09
-1.208e-08
9.92e-09
-6.308e-08
9.2e-10
2.92e-09
9.92e-09
0.0628951
0.0653155
0.0671558
0.0685749
0.0696806
0.0705483
0.0712317
0.0717706
0.0721941
0.0725248
0.0727796
0.0729721
0.0731127
0.0732099
0.0732704
0.0732997
0.0733024
0.0732821
0.0732419
0.0731845
0.0731119
0.073026
0.0729284
0.0728203
0.072703
0.0725773
0.0724442
0.0723043
0.0721583
0.0720066
0.0718498
0.0716883
0.0715224
0.0713523
0.0711784
0.0710008
0.0708197
0.0706353
0.0704476
0.0702567
0.125358
0.130182
0.133862
0.136706
0.138928
0.140675
0.142055
0.143146
0.144006
0.144681
0.145204
0.145602
0.145896
0.146103
0.146237
0.146308
0.146326
0.146298
0.14623
0.146128
0.145995
0.145835
0.145652
0.145449
0.145226
0.144987
0.144733
0.144465
0.144185
0.143894
0.143593
0.143282
0.142962
0.142634
0.142298
0.141955
0.141605
0.141248
0.140885
0.140515
0.186988
0.194176
0.199687
0.203966
0.207321
0.209969
0.21207
0.213738
0.215061
0.216105
0.216922
0.217551
0.218025
0.218367
0.2186
0.218738
0.218796
0.218785
0.218714
0.218591
0.218422
0.218214
0.21797
0.217694
0.217391
0.217063
0.216712
0.216341
0.215951
0.215545
0.215122
0.214686
0.214237
0.213775
0.213301
0.212817
0.212322
0.211816
0.211301
0.210776
0.247374
0.256868
0.264199
0.269925
0.274439
0.278022
0.280878
0.283161
0.284985
0.286438
0.287587
0.288486
0.289177
0.289692
0.290061
0.290303
0.290439
0.290481
0.290444
0.290337
0.29017
0.289948
0.28968
0.289369
0.289021
0.28864
0.288229
0.28779
0.287327
0.286841
0.286334
0.285808
0.285265
0.284705
0.28413
0.28354
0.282935
0.282318
0.281687
0.281043
0.306112
0.317837
0.326973
0.334162
0.339869
0.344428
0.348089
0.351037
0.353413
0.355325
0.356857
0.358077
0.359035
0.359774
0.360328
0.360725
0.360986
0.361132
0.361177
0.361135
0.361017
0.360831
0.360586
0.360288
0.359944
0.359557
0.359133
0.358675
0.358185
0.357668
0.357124
0.356557
0.355968
0.355357
0.354727
0.354079
0.353413
0.35273
0.352031
0.351315
0.36281
0.376672
0.387592
0.396265
0.403206
0.408795
0.413319
0.416994
0.419985
0.42242
0.4244
0.426002
0.427291
0.428315
0.429117
0.429729
0.430178
0.430487
0.430675
0.430758
0.430749
0.430658
0.430497
0.430271
0.429989
0.429657
0.429279
0.428861
0.428405
0.427915
0.427393
0.426843
0.426266
0.425665
0.425039
0.424392
0.423723
0.423034
0.422324
0.421595
0.417088
0.432975
0.445654
0.455834
0.464058
0.47074
0.476198
0.480673
0.484354
0.487389
0.48989
0.491952
0.493645
0.495029
0.496151
0.497051
0.49776
0.498305
0.498708
0.498987
0.499158
0.499234
0.499226
0.499144
0.498995
0.498787
0.498526
0.498217
0.497865
0.497472
0.497043
0.49658
0.496086
0.495563
0.495012
0.494435
0.493833
0.493207
0.492557
0.491884
0.468576
0.486364
0.500772
0.512484
0.522047
0.529895
0.536367
0.541728
0.546187
0.549908
0.553019
0.555626
0.557809
0.559638
0.561166
0.562438
0.56349
0.564353
0.565053
0.565611
0.566044
0.566368
0.566595
0.566737
0.566803
0.566801
0.566738
0.56662
0.566451
0.566237
0.56598
0.565685
0.565354
0.56499
0.564594
0.564168
0.563713
0.56323
0.56272
0.562184
0.516949
0.536499
0.552597
0.565863
0.576825
0.585917
0.593493
0.599835
0.605169
0.609673
0.613492
0.616741
0.619512
0.621881
0.623909
0.625647
0.627136
0.628411
0.629501
0.630429
0.631217
0.63188
0.632435
0.632893
0.633264
0.633559
0.633785
0.633948
0.634054
0.634109
0.634116
0.634079
0.634002
0.633887
0.633736
0.633551
0.633334
0.633085
0.632806
0.632496
0.562074
0.583181
0.600879
0.615689
0.62809
0.638499
0.647268
0.654691
0.661003
0.666398
0.671032
0.675029
0.678494
0.681509
0.684143
0.686451
0.688481
0.69027
0.691853
0.693254
0.694497
0.695602
0.696585
0.69746
0.698238
0.69893
0.699544
0.700089
0.700571
0.700994
0.701365
0.701687
0.701964
0.702198
0.702393
0.702549
0.702669
0.702754
0.702804
0.702821
1e-08
2e-08
2e-08
2e-08
-7e-08
-4.1e-08
-5.6e-08
-4.4e-08
2.3e-08
-4.6e-08
1.1e-08
-3e-08
-1.9e-08
-4.62e-08
-4.13e-08
-6.1e-09
-3.898e-08
-2.678e-08
1.422e-08
-3.888e-08
-2.028e-08
-3.8e-10
-2.608e-08
-7.408e-08
-1.108e-08
-6.708e-08
-5.08e-09
-5.08e-09
-4.608e-08
7.92e-09
1.992e-08
-1.208e-08
-4.808e-08
3.92e-09
-1.208e-08
9.92e-09
-6.308e-08
9.2e-10
2.92e-09
9.92e-09
0.0628951
0.0653155
0.0671558
0.0685749
0.0696806
0.0705483
0.0712317
0.0717706
0.0721941
0.0725248
0.0727796
0.0729721
0.0731127
0.0732099
0.0732704
0.0732997
0.0733024
0.0732821
0.0732419
0.0731845
0.0731119
0.073026
0.0729284
0.0728203
0.072703
0.0725773
0.0724442
0.0723043
0.0721583
0.0720066
0.0718498
0.0716883
0.0715224
0.0713523
0.0711784
0.0710008
0.0708197
0.0706353
0.0704476
0.0702567
0.125358
0.130182
0.133862
0.136706
0.138928
0.140675
0.142055
0.143146
0.144006
0.144681
0.145204
0.145602
0.145896
0.146103
0.146237
0.146308
0.146326
0.146298
0.14623
0.146128
0.145995
0.145835
0.145652
0.145449
0.145226
0.144987
0.144733
0.144465
0.144185
0.143894
0.143593
0.143282
0.142962
0.142634
0.142298
0.141955
0.141605
0.141248
0.140885
0.140515
0.186988
0.194176
0.199687
0.203966
0.207321
0.209969
0.21207
0.213738
0.215061
0.216105
0.216922
0.217551
0.218025
0.218367
0.2186
0.218738
0.218796
0.218785
0.218714
0.218591
0.218422
0.218214
0.21797
0.217694
0.217391
0.217063
0.216712
0.216341
0.215951
0.215545
0.215122
0.214686
0.214237
0.213775
0.213301
0.212817
0.212322
0.211816
0.211301
0.210776
0.247374
0.256868
0.264199
0.269925
0.274439
0.278022
0.280878
0.283161
0.284985
0.286438
0.287587
0.288486
0.289177
0.289692
0.290061
0.290303
0.290439
0.290481
0.290444
0.290337
0.29017
0.289948
0.28968
0.289369
0.289021
0.28864
0.288229
0.28779
0.287327
0.286841
0.286334
0.285808
0.285265
0.284705
0.28413
0.28354
0.282935
0.282318
0.281687
0.281043
0.306112
0.317837
0.326973
0.334162
0.339869
0.344428
0.348089
0.351037
0.353413
0.355325
0.356857
0.358077
0.359035
0.359774
0.360328
0.360725
0.360986
0.361132
0.361177
0.361135
0.361017
0.360831
0.360586
0.360288
0.359944
0.359557
0.359133
0.358675
0.358185
0.357668
0.357124
0.356557
0.355968
0.355357
0.354727
0.354079
0.353413
0.35273
0.352031
0.351315
0.36281
0.376672
0.387592
0.396265
0.403206
0.408795
0.413319
0.416994
0.419985
0.42242
0.4244
0.426002
0.427291
0.428315
0.429117
0.429729
0.430178
0.430487
0.430675
0.430758
0.430749
0.430658
0.430497
0.430271
0.429989
0.429657
0.429279
0.428861
0.428405
0.427915
0.427393
0.426843
0.426266
0.425665
0.425039
0.424392
0.423723
0.423034
0.422324
0.421595
0.417088
0.432975
0.445654
0.455834
0.464058
0.47074
0.476198
0.480673
0.484354
0.487389
0.48989
0.491952
0.493645
0.495029
0.496151
0.497051
0.49776
0.498305
0.498708
0.498987
0.499158
0.499234
0.499226
0.499144
0.498995
0.498787
0.498526
0.498217
0.497865
0.497472
0.497043
0.49658
0.496086
0.495563
0.495012
0.494435
0.493833
0.493207
0.492557
0.491884
0.468576
0.486364
0.500772
0.512484
0.522047
0.529895
0.536367
0.541728
0.546187
0.549908
0.553019
0.555626
0.557809
0.559638
0.561166
0.562438
0.56349
0.564353
0.565053
0.565611
0.566044
0.566368
0.566595
0.566737
0.566803
0.566801
0.566738
0.56662
0.566451
0.566237
0.56598
0.565685
0.565354
0.56499
0.564594
0.564168
0.563713
0.56323
0.56272
0.562184
0.516949
0.536499
0.552597
0.565863
0.576825
0.585917
0.593493
0.599835
0.605169
0.609673
0.613492
0.616741
0.619512
0.621881
0.623909
0.625647
0.627136
0.628411
0.629501
0.630429
0.631217
0.63188
0.632435
0.632893
0.633264
0.633559
0.633785
0.633948
0.634054
0.634109
0.634116
0.634079
0.634002
0.633887
0.633736
0.633551
0.633334
0.633085
0.632806
0.632496
0.562074
0.583181
0.600879
0.615689
0.62809
0.638499
0.647268
0.654691
0.661003
0.666398
0.671032
0.675029
0.678494
0.681509
0.684143
0.686451
0.688481
0.69027
0.691853
0.693254
0.694497
0.695602
0.696585
0.69746
0.698238
0.69893
0.699544
0.700089
0.700571
0.700994
0.701365
0.701687
0.701964
0.702198
0.702393
0.702549
0.702669
0.702754
0.702804
0.702821
0.621527
0.644016
0.663548
0.68032
0.69464
0.706837
0.717226
0.726089
0.73367
0.740177
0.745783
0.750629
0.754834
0.758498
0.7617
0.764507
0.766977
0.769154
0.77108
0.772785
0.774299
0.775645
0.776843
0.77791
0.77886
0.779707
0.780461
0.781131
0.781725
0.782251
0.782714
0.783119
0.783471
0.783774
0.784031
0.784244
0.784415
0.784546
0.784639
0.784695
0.784713
0.707686
0.727698
0.745538
0.761205
0.77484
0.786648
0.79685
0.805663
0.813282
0.819882
0.825613
0.830602
0.834959
0.838773
0.842122
0.845071
0.847674
0.849977
0.852018
0.853831
0.855443
0.85688
0.85816
0.859303
0.860322
0.861231
0.862041
0.862762
0.863402
0.863968
0.864468
0.864905
0.865285
0.865612
0.865889
0.866119
0.866304
0.866446
0.866547
0.866607
0.866627
0.794954
0.812657
0.828808
0.843286
0.856116
0.867404
0.877293
0.885939
0.893494
0.900099
0.90588
0.910949
0.915402
0.919322
0.922781
0.925839
0.928548
0.930952
0.93309
0.934994
0.936691
0.938206
0.939559
0.940768
0.941848
0.942813
0.943673
0.94444
0.945122
0.945725
0.946257
0.946724
0.94713
0.947479
0.947775
0.948021
0.948219
0.948371
0.948478
0.948542
0.948564
0.882925
0.898529
0.913062
0.926336
0.938299
0.948982
0.958467
0.966857
0.974265
0.9808
0.986566
0.991658
0.996158
1.00014
1.00368
1.00681
1.0096
1.01209
1.0143
1.01628
1.01805
1.01963
1.02104
1.02231
1.02344
1.02446
1.02536
1.02617
1.02689
1.02752
1.02809
1.02858
1.02901
1.02938
1.02969
1.02995
1.03016
1.03032
1.03044
1.0305
1.03053
0.971301
0.985031
0.998056
1.01016
1.02123
1.03127
1.04029
1.04835
1.05555
1.06195
1.06765
1.07271
1.07722
1.08123
1.0848
1.08799
1.09083
1.09338
1.09565
1.09769
1.09951
1.10115
1.10261
1.10393
1.10511
1.10616
1.10711
1.10795
1.1087
1.10937
1.10996
1.11047
1.11092
1.11131
1.11164
1.11191
1.11213
1.1123
1.11242
1.11249
1.11251
1.05987
1.07195
1.08359
1.09458
1.10478
1.11415
1.12266
1.13036
1.1373
1.14352
1.1491
1.1541
1.15857
1.16257
1.16616
1.16937
1.17224
1.17482
1.17714
1.17922
1.18109
1.18277
1.18427
1.18563
1.18684
1.18794
1.18891
1.18979
1.19056
1.19126
1.19187
1.1924
1.19287
1.19327
1.19362
1.1939
1.19413
1.19431
1.19443
1.19451
1.19453
1.14849
1.15912
1.16952
1.17947
1.18883
1.19752
1.20552
1.21283
1.21946
1.22547
1.2309
1.23579
1.2402
1.24416
1.24773
1.25094
1.25383
1.25643
1.25877
1.26088
1.26278
1.26449
1.26602
1.26741
1.26866
1.26977
1.27078
1.27168
1.27248
1.27319
1.27382
1.27438
1.27486
1.27528
1.27563
1.27592
1.27616
1.27634
1.27647
1.27655
1.27658
1.23706
1.24642
1.25571
1.2647
1.27327
1.28131
1.28878
1.29568
1.302
1.30777
1.31301
1.31777
1.32209
1.32599
1.32952
1.3327
1.33558
1.33819
1.34054
1.34266
1.34457
1.3463
1.34787
1.34927
1.35054
1.35168
1.35271
1.35362
1.35445
1.35518
1.35582
1.35639
1.35689
1.35732
1.35768
1.35798
1.35823
1.35841
1.35855
1.35863
1.35865
1.32551
1.33378
1.34207
1.35019
1.35801
1.36543
1.37239
1.37887
1.38486
1.39037
1.39541
1.40002
1.40421
1.40803
1.4115
1.41465
1.4175
1.42009
1.42244
1.42456
1.42648
1.42822
1.4298
1.43122
1.4325
1.43366
1.4347
1.43563
1.43646
1.43721
1.43787
1.43845
1.43895
1.43939
1.43976
1.44007
1.44032
1.44051
1.44065
1.44073
1.44076
1.4138
1.42112
1.42853
1.43586
1.44299
1.44982
1.45628
1.46235
1.468
1.47324
1.47807
1.4825
1.48657
1.49028
1.49367
1.49676
1.49958
1.50214
1.50447
1.50658
1.5085
1.51024
1.51182
1.51325
1.51454
1.5157
1.51675
1.51769
1.51854
1.51929
1.51996
1.52055
1.52106
1.52151
1.52189
1.5222
1.52245
1.52265
1.52279
1.52287
1.5229
1.50192
1.5084
1.51503
1.52165
1.52814
1.53442
1.54041
1.54608
1.55139
1.55635
1.56095
1.56521
1.56912
1.57272
1.57602
1.57904
1.5818
1.58432
1.58662
1.58872
1.59062
1.59235
1.59393
1.59535
1.59665
1.59781
1.59887
1.59982
1.60067
1.60142
1.6021
1.60269
1.60321
1.60366
1.60404
1.60436
1.60462
1.60482
1.60496
1.60504
1.60507
1.58984
1.5956
1.60153
1.60751
1.61343
1.61919
1.62473
1.63001
1.63499
1.63968
1.64405
1.64811
1.65187
1.65534
1.65854
1.66148
1.66417
1.66664
1.6689
1.67096
1.67284
1.67456
1.67612
1.67754
1.67883
1.67999
1.68105
1.68199
1.68285
1.68361
1.68428
1.68488
1.6854
1.68585
1.68624
1.68656
1.68682
1.68702
1.68716
1.68724
1.68727
1.67756
1.68269
1.68801
1.69342
1.6988
1.70408
1.7092
1.71411
1.71877
1.72318
1.72732
1.73118
1.73478
1.73812
1.7412
1.74405
1.74667
1.74908
1.75129
1.75331
1.75517
1.75686
1.7584
1.7598
1.76108
1.76224
1.76329
1.76423
1.76508
1.76584
1.76652
1.76711
1.76764
1.76809
1.76847
1.76879
1.76905
1.76925
1.7694
1.76948
1.76951
1.76509
1.76967
1.77445
1.77934
1.78424
1.78907
1.79379
1.79835
1.80271
1.80685
1.81075
1.81442
1.81785
1.82104
1.82401
1.82676
1.8293
1.83164
1.83379
1.83577
1.83758
1.83924
1.84076
1.84214
1.8434
1.84455
1.84559
1.84652
1.84737
1.84812
1.84879
1.84939
1.84991
1.85036
1.85074
1.85107
1.85132
1.85152
1.85167
1.85175
1.85178
1.85243
1.85652
1.86082
1.86524
1.86971
1.87414
1.87849
1.88271
1.88677
1.89065
1.89433
1.8978
1.90106
1.9041
1.90695
1.90959
1.91204
1.9143
1.91639
1.91832
1.92009
1.92171
1.9232
1.92456
1.9258
1.92692
1.92795
1.92887
1.92971
1.93045
1.93112
1.93171
1.93222
1.93267
1.93305
1.93337
1.93363
1.93383
1.93397
1.93405
1.93408
1.93959
1.94325
1.94713
1.95113
1.95519
1.95925
1.96325
1.96716
1.97094
1.97457
1.97802
1.9813
1.98439
1.98729
1.99
1.99253
1.99489
1.99707
1.99909
2.00096
2.00268
2.00426
2.00571
2.00704
2.00825
2.00936
2.01036
2.01127
2.01209
2.01283
2.01349
2.01407
2.01458
2.01502
2.0154
2.01571
2.01597
2.01617
2.01631
2.01639
2.01642
2.02657
2.02986
2.03335
2.03698
2.04068
2.04439
2.04808
2.05169
2.0552
2.05858
2.06182
2.06491
2.06783
2.07058
2.07316
2.07558
2.07784
2.07994
2.08188
2.08369
2.08535
2.08689
2.0883
2.08959
2.09077
2.09185
2.09284
2.09373
2.09453
2.09526
2.0959
2.09647
2.09697
2.09741
2.09778
2.09809
2.09834
2.09854
2.09868
2.09876
2.09879
2.11339
2.11635
2.1195
2.12279
2.12616
2.12956
2.13294
2.13628
2.13953
2.14269
2.14572
2.14861
2.15136
2.15397
2.15642
2.15873
2.16088
2.16289
2.16476
2.1665
2.1681
2.16958
2.17095
2.17221
2.17336
2.17441
2.17536
2.17623
2.17702
2.17773
2.17836
2.17892
2.17941
2.17984
2.1802
2.18051
2.18075
2.18094
2.18108
2.18116
2.18119
2.20006
2.20272
2.20557
2.20855
2.21162
2.21473
2.21784
2.22091
2.22393
2.22686
2.22969
2.2324
2.23499
2.23745
2.23977
2.24196
2.24401
2.24593
2.24772
2.24938
2.25092
2.25235
2.25367
2.25488
2.256
2.25702
2.25794
2.25879
2.25955
2.26024
2.26086
2.2614
2.26188
2.2623
2.26266
2.26295
2.26319
2.26338
2.26351
2.26359
2.26362
2.28659
2.28899
2.29156
2.29426
2.29706
2.2999
2.30275
2.30559
2.30837
2.3111
2.31373
2.31627
2.31869
2.32101
2.3232
2.32527
2.32721
2.32904
2.33075
2.33234
2.33381
2.33518
2.33645
2.33762
2.33869
2.33968
2.34057
2.34139
2.34213
2.3428
2.34339
2.34392
2.34439
2.3448
2.34514
2.34543
2.34567
2.34585
2.34598
2.34606
2.34608
2.37299
2.37514
2.37747
2.37992
2.38247
2.38506
2.38768
2.39029
2.39286
2.39538
2.39783
2.4002
2.40247
2.40464
2.4067
2.40865
2.41049
2.41222
2.41384
2.41536
2.41677
2.41808
2.41929
2.42041
2.42144
2.42239
2.42325
2.42404
2.42475
2.4254
2.42597
2.42649
2.42694
2.42733
2.42767
2.42795
2.42817
2.42835
2.42848
2.42855
2.42857
2.45926
2.4612
2.46331
2.46553
2.46784
2.47021
2.47261
2.475
2.47738
2.47971
2.48198
2.48418
2.4863
2.48833
2.49026
2.4921
2.49383
2.49547
2.497
2.49844
2.49978
2.50103
2.50218
2.50325
2.50424
2.50514
2.50597
2.50673
2.50742
2.50803
2.50859
2.50908
2.50952
2.5099
2.51022
2.51049
2.51071
2.51088
2.511
2.51107
2.5111
2.54542
2.54717
2.54907
2.55109
2.55319
2.55535
2.55754
2.55974
2.56192
2.56407
2.56617
2.56821
2.57018
2.57207
2.57388
2.5756
2.57723
2.57877
2.58022
2.58158
2.58285
2.58403
2.58513
2.58615
2.58708
2.58795
2.58874
2.58946
2.59012
2.59071
2.59124
2.59171
2.59213
2.59249
2.59281
2.59307
2.59328
2.59344
2.59356
2.59363
2.59365
2.63147
2.63305
2.63477
2.63659
2.6385
2.64047
2.64246
2.64448
2.64648
2.64846
2.6504
2.65228
2.65411
2.65587
2.65756
2.65916
2.66069
2.66213
2.66349
2.66477
2.66597
2.66708
2.66812
2.66909
2.66997
2.67079
2.67155
2.67223
2.67286
2.67342
2.67393
2.67438
2.67478
2.67512
2.67542
2.67567
2.67587
2.67603
2.67614
2.6762
2.67623
2.71743
2.71885
2.7204
2.72205
2.72378
2.72556
2.72738
2.72922
2.73105
2.73287
2.73465
2.73639
2.73808
2.73971
2.74128
2.74277
2.74419
2.74554
2.74681
2.74801
2.74913
2.75018
2.75116
2.75207
2.75291
2.75368
2.75439
2.75504
2.75563
2.75617
2.75665
2.75707
2.75745
2.75778
2.75806
2.7583
2.75849
2.75864
2.75875
2.75881
2.75883
2.8033
2.80458
2.80597
2.80746
2.80902
2.81064
2.81229
2.81397
2.81564
2.8173
2.81893
2.82053
2.82209
2.82359
2.82504
2.82642
2.82774
2.82899
2.83018
2.8313
2.83234
2.83332
2.83424
2.83509
2.83588
2.8366
2.83727
2.83788
2.83844
2.83894
2.8394
2.8398
2.84016
2.84047
2.84073
2.84096
2.84114
2.84128
2.84138
2.84144
2.84146
2.88909
2.89023
2.89149
2.89283
2.89424
2.8957
2.8972
2.89871
2.90023
2.90174
2.90324
2.9047
2.90612
2.9075
2.90884
2.91011
2.91133
2.91249
2.91358
2.91462
2.91559
2.9165
2.91736
2.91815
2.91888
2.91956
2.92018
2.92076
2.92128
2.92175
2.92217
2.92255
2.92289
2.92318
2.92343
2.92364
2.92381
2.92394
2.92404
2.92409
2.92411
2.9748
2.97583
2.97695
2.97815
2.97942
2.98073
2.98208
2.98345
2.98483
2.9862
2.98756
2.98889
2.99019
2.99145
2.99266
2.99383
2.99495
2.99602
2.99703
2.99798
2.99888
2.99972
3.00051
3.00124
3.00192
3.00255
3.00313
3.00366
3.00414
3.00458
3.00498
3.00533
3.00564
3.00592
3.00615
3.00634
3.0065
3.00663
3.00671
3.00677
3.00678
3.06046
3.06137
3.06237
3.06344
3.06457
3.06575
3.06696
3.06819
3.06943
3.07067
3.07189
3.07309
3.07427
3.07542
3.07652
3.07759
3.0786
3.07958
3.0805
3.08137
3.08219
3.08297
3.08369
3.08436
3.08499
3.08557
3.0861
3.08659
3.08704
3.08744
3.08781
3.08813
3.08842
3.08867
3.08889
3.08907
3.08922
3.08933
3.08941
3.08946
3.08948
3.14605
3.14686
3.14774
3.14869
3.1497
3.15075
3.15183
3.15292
3.15403
3.15514
3.15624
3.15732
3.15838
3.15941
3.1604
3.16137
3.16229
3.16317
3.164
3.16479
3.16554
3.16624
3.1669
3.16752
3.16809
3.16862
3.1691
3.16955
3.16996
3.17033
3.17066
3.17096
3.17122
3.17145
3.17165
3.17182
3.17195
3.17206
3.17213
3.17218
3.17219
3.23159
3.2323
3.23308
3.23392
3.2348
3.23573
3.23668
3.23765
3.23863
3.23962
3.24059
3.24155
3.2425
3.24342
3.24431
3.24517
3.24599
3.24678
3.24753
3.24824
3.24891
3.24955
3.25014
3.25069
3.25121
3.25169
3.25213
3.25253
3.2529
3.25323
3.25354
3.25381
3.25405
3.25425
3.25443
3.25458
3.25471
3.2548
3.25487
3.25491
3.25492
3.31708
3.3177
3.31838
3.31911
3.31988
3.32069
3.32152
3.32237
3.32324
3.3241
3.32496
3.3258
3.32663
3.32744
3.32823
3.32899
3.32972
3.33042
3.33108
3.33172
3.33231
3.33287
3.3334
3.33389
3.33435
3.33478
3.33517
3.33553
3.33586
3.33616
3.33643
3.33667
3.33688
3.33707
3.33723
3.33737
3.33747
3.33756
3.33762
3.33766
3.33767
3.40253
3.40306
3.40365
3.40428
3.40494
3.40564
3.40636
3.40709
3.40784
3.40858
3.40932
3.41006
3.41078
3.41148
3.41217
3.41283
3.41347
3.41408
3.41466
3.41521
3.41573
3.41622
3.41668
3.41711
3.41752
3.41789
3.41823
3.41855
3.41884
3.4191
3.41934
3.41955
3.41974
3.4199
3.42004
3.42016
3.42026
3.42033
3.42039
3.42042
3.42043
3.48795
3.4884
3.48889
3.48942
3.48998
3.49057
3.49118
3.4918
3.49243
3.49307
3.4937
3.49432
3.49494
3.49554
3.49612
3.49669
3.49723
3.49775
3.49825
3.49872
3.49916
3.49959
3.49998
3.50035
3.5007
3.50102
3.50131
3.50158
3.50183
3.50206
3.50226
3.50245
3.50261
3.50275
3.50287
3.50297
3.50305
3.50312
3.50316
3.50319
3.5032
3.57334
3.5737
3.57411
3.57455
3.57501
3.57549
3.576
3.57651
3.57703
3.57756
3.57808
3.57859
3.5791
3.5796
3.58008
3.58055
3.581
3.58144
3.58185
3.58224
3.58261
3.58297
3.58329
3.5836
3.58389
3.58416
3.58441
3.58463
3.58484
3.58503
3.5852
3.58535
3.58549
3.58561
3.58571
3.58579
3.58586
3.58592
3.58595
3.58598
3.58598
3.6587
3.65899
3.65931
3.65966
3.66002
3.66041
3.66081
3.66121
3.66163
3.66204
3.66246
3.66287
3.66327
3.66367
3.66406
3.66443
3.66479
3.66514
3.66547
3.66578
3.66608
3.66636
3.66662
3.66687
3.6671
3.66731
3.66751
3.66769
3.66786
3.66801
3.66815
3.66827
3.66838
3.66847
3.66855
3.66862
3.66868
3.66872
3.66875
3.66877
3.66878
3.74404
3.74426
3.7445
3.74475
3.74503
3.74531
3.74561
3.74591
3.74622
3.74653
3.74684
3.74715
3.74745
3.74775
3.74804
3.74832
3.74859
3.74884
3.74909
3.74933
3.74955
3.74976
3.74996
3.75014
3.75032
3.75048
3.75062
3.75076
3.75089
3.751
3.7511
3.75119
3.75128
3.75135
3.75141
3.75146
3.7515
3.75153
3.75156
3.75157
3.75158
3.82937
3.82951
3.82967
3.82984
3.83002
3.83021
3.83041
3.83061
3.83082
3.83102
3.83123
3.83143
3.83163
3.83183
3.83202
3.83221
3.83239
3.83256
3.83272
3.83288
3.83303
3.83317
3.8333
3.83342
3.83354
3.83365
3.83375
3.83384
3.83392
3.834
3.83407
3.83413
3.83418
3.83423
3.83427
3.8343
3.83433
3.83435
3.83437
3.83438
3.83438
3.91469
3.91476
3.91484
3.91492
3.91501
3.91511
3.9152
3.91531
3.91541
3.91551
3.91561
3.91572
3.91582
3.91591
3.91601
3.9161
3.91619
3.91628
3.91636
3.91644
3.91651
3.91658
3.91665
3.91671
3.91677
3.91682
3.91687
3.91692
3.91696
3.917
3.91703
3.91706
3.91709
3.91711
3.91713
3.91715
3.91716
3.91718
3.91718
3.91719
3.91719
4
4
4
4
4
4
4
4
4
4
4
4
4
4
4
4
4
4
4
4
4
4
4
4
4
4
4
4
4
4
4
4
4
4
4
4
4
4
4
4
4
0.621527
0.644016
0.663548
0.68032
0.69464
0.706837
0.717226
0.726089
0.73367
0.740177
0.745783
0.750629
0.754834
0.758498
0.7617
0.764507
0.766977
0.769154
0.77108
0.772785
0.774299
0.775645
0.776843
0.77791
0.77886
0.779707
0.780461
0.781131
0.781725
0.782251
0.782714
0.783119
0.783471
0.783774
0.784031
0.784244
0.784415
0.784546
0.784639
0.784695
0.784713
0.707686
0.727698
0.745538
0.761205
0.77484
0.786648
0.79685
0.805663
0.813282
0.819882
0.825613
0.830602
0.834959
0.838773
0.842122
0.845071
0.847674
0.849977
0.852018
0.853831
0.855443
0.85688
0.85816
0.859303
0.860322
0.861231
0.862041
0.862762
0.863402
0.863968
0.864468
0.864905
0.865285
0.865612
0.865889
0.866119
0.866304
0.866446
0.866547
0.866607
0.866627
0.794954
0.812657
0.828808
0.843286
0.856116
0.867404
0.877293
0.885939
0.893494
0.900099
0.90588
0.910949
0.915402
0.919322
0.922781
0.925839
0.928548
0.930952
0.93309
0.934994
0.936691
0.938206
0.939559
0.940768
0.941848
0.942813
0.943673
0.94444
0.945122
0.945725
0.946257
0.946724
0.94713
0.947479
0.947775
0.948021
0.948219
0.948371
0.948478
0.948542
0.948564
0.882925
0.898529
0.913062
0.926336
0.938299
0.948982
0.958467
0.966857
0.974265
0.9808
0.986566
0.991658
0.996158
1.00014
1.00368
1.00681
1.0096
1.01209
1.0143
1.01628
1.01805
1.01963
1.02104
1.02231
1.02344
1.02446
1.02536
1.02617
1.02689
1.02752
1.02809
1.02858
1.02901
1.02938
1.02969
1.02995
1.03016
1.03032
1.03044
1.0305
1.03053
0.971301
0.985031
0.998056
1.01016
1.02123
1.03127
1.04029
1.04835
1.05555
1.06195
1.06765
1.07271
1.07722
1.08123
1.0848
1.08799
1.09083
1.09338
1.09565
1.09769
1.09951
1.10115
1.10261
1.10393
1.10511
1.10616
1.10711
1.10795
1.1087
1.10937
1.10996
1.11047
1.11092
1.11131
1.11164
1.11191
1.11213
1.1123
1.11242
1.11249
1.11251
1.05987
1.07195
1.08359
1.09458
1.10478
1.11415
1.12266
1.13036
1.1373
1.14352
1.1491
1.1541
1.15857
1.16257
1.16616
1.16937
1.17224
1.17482
1.17714
1.17922
1.18109
1.18277
1.18427
1.18563
1.18684
1.18794
1.18891
1.18979
1.19056
1.19126
1.19187
1.1924
1.19287
1.19327
1.19362
1.1939
1.19413
1.19431
1.19443
1.19451
1.19453
1.14849
1.15912
1.16952
1.17947
1.18883
1.19752
1.20552
1.21283
1.21946
1.22547
1.2309
1.23579
1.2402
1.24416
1.24773
1.25094
1.25383
1.25643
1.25877
1.26088
1.26278
1.26449
1.26602
1.26741
1.26866
1.26977
1.27078
1.27168
1.27248
1.27319
1.27382
1.27438
1.27486
1.27528
1.27563
1.27592
1.27616
1.27634
1.27647
1.27655
1.27658
1.23706
1.24642
1.25571
1.2647
1.27327
1.28131
1.28878
1.29568
1.302
1.30777
1.31301
1.31777
1.32209
1.32599
1.32952
1.3327
1.33558
1.33819
1.34054
1.34266
1.34457
1.3463
1.34787
1.34927
1.35054
1.35168
1.35271
1.35362
1.35445
1.35518
1.35582
1.35639
1.35689
1.35732
1.35768
1.35798
1.35823
1.35841
1.35855
1.35863
1.35865
1.32551
1.33378
1.34207
1.35019
1.35801
1.36543
1.37239
1.37887
1.38486
1.39037
1.39541
1.40002
1.40421
1.40803
1.4115
1.41465
1.4175
1.42009
1.42244
1.42456
1.42648
1.42822
1.4298
1.43122
1.4325
1.43366
1.4347
1.43563
1.43646
1.43721
1.43787
1.43845
1.43895
1.43939
1.43976
1.44007
1.44032
1.44051
1.44065
1.44073
1.44076
1.4138
1.42112
1.42853
1.43586
1.44299
1.44982
1.45628
1.46235
1.468
1.47324
1.47807
1.4825
1.48657
1.49028
1.49367
1.49676
1.49958
1.50214
1.50447
1.50658
1.5085
1.51024
1.51182
1.51325
1.51454
1.5157
1.51675
1.51769
1.51854
1.51929
1.51996
1.52055
1.52106
1.52151
1.52189
1.5222
1.52245
1.52265
1.52279
1.52287
1.5229
1.50192
1.5084
1.51503
1.52165
1.52814
1.53442
1.54041
1.54608
1.55139
1.55635
1.56095
1.56521
1.56912
1.57272
1.57602
1.57904
1.5818
1.58432
1.58662
1.58872
1.59062
1.59235
1.59393
1.59535
1.59665
1.59781
1.59887
1.59982
1.60067
1.60142
1.6021
1.60269
1.60321
1.60366
1.60404
1.60436
1.60462
1.60482
1.60496
1.60504
1.60507
1.58984
1.5956
1.60153
1.60751
1.61343
1.61919
1.62473
1.63001
1.63499
1.63968
1.64405
1.64811
1.65187
1.65534
1.65854
1.66148
1.66417
1.66664
1.6689
1.67096
1.67284
1.67456
1.67612
1.67754
1.67883
1.67999
1.68105
1.68199
1.68285
1.68361
1.68428
1.68488
1.6854
1.68585
1.68624
1.68656
1.68682
1.68702
1.68716
1.68724
1.68727
1.67756
1.68269
1.68801
1.69342
1.6988
1.70408
1.7092
1.71411
1.71877
1.72318
1.72732
1.73118
1.73478
1.73812
1.7412
1.74405
1.74667
1.74908
1.75129
1.75331
1.75517
1.75686
1.7584
1.7598
1.76108
1.76224
1.76329
1.76423
1.76508
1.76584
1.76652
1.76711
1.76764
1.76809
1.76847
1.76879
1.76905
1.76925
1.7694
1.76948
1.76951
1.76509
1.76967
1.77445
1.77934
1.78424
1.78907
1.79379
1.79835
1.80271
1.80685
1.81075
1.81442
1.81785
1.82104
1.82401
1.82676