/*--------------------------------*- C++ -*----------------------------------*\
  =========                 |
  \\      /  F ield         | OpenFOAM: The Open Source CFD Toolbox
   \\    /   O peration     | Website:  https://openfoam.org
    \\  /    A nd           | Version:  6
     \\/     M anipulation  |
\*---------------------------------------------------------------------------*/
FoamFile
{
    version     2.0;
    format      ascii;
    class       volScalarField;
    location    "13";
    object      T;
}
// * * * * * * * * * * * * * * * * * * * * * * * * * * * * * * * * * * * * * //

dimensions      [0 0 0 1 0 0 0];

internalField   nonuniform List<scalar> 
5000
(
0.676466
0.676294
0.675946
0.675426
0.674732
0.673865
0.672827
0.671619
0.670241
0.668695
0.666982
0.665105
0.663065
0.660864
0.658503
0.655987
0.653317
0.650495
0.647524
0.644408
0.64115
0.637752
0.634218
0.630552
0.626757
0.622836
0.618795
0.614636
0.610364
0.605983
0.601497
0.596911
0.59223
0.587457
0.582598
0.577658
0.57264
0.567552
0.562396
0.557179
0.551905
0.54658
0.541209
0.535798
0.530351
0.524874
0.519373
0.513852
0.508318
0.502776
0.497231
0.491688
0.486154
0.480634
0.475132
0.469656
0.464209
0.458797
0.453426
0.448102
0.442828
0.437611
0.432455
0.427366
0.422349
0.417409
0.41255
0.407777
0.403096
0.39851
0.394025
0.389644
0.385372
0.381213
0.377171
0.373251
0.369456
0.365789
0.362256
0.358858
0.355599
0.352483
0.349513
0.346691
0.344021
0.341505
0.339145
0.336943
0.334903
0.333026
0.331314
0.329768
0.32839
0.327181
0.326143
0.325277
0.324583
0.324062
0.323715
0.323541
0.676468
0.676295
0.675948
0.675427
0.674733
0.673867
0.672829
0.67162
0.670242
0.668696
0.666983
0.665106
0.663066
0.660865
0.658504
0.655988
0.653317
0.650496
0.647525
0.644409
0.641151
0.637753
0.634219
0.630553
0.626757
0.622837
0.618795
0.614636
0.610364
0.605983
0.601497
0.596912
0.59223
0.587457
0.582598
0.577658
0.572641
0.567552
0.562396
0.557179
0.551905
0.546581
0.54121
0.535798
0.530351
0.524874
0.519373
0.513852
0.508318
0.502776
0.497231
0.491688
0.486154
0.480634
0.475132
0.469655
0.464208
0.458797
0.453426
0.448101
0.442828
0.43761
0.432455
0.427366
0.422349
0.417408
0.412549
0.407777
0.403095
0.39851
0.394024
0.389643
0.385371
0.381212
0.37717
0.37325
0.369455
0.365789
0.362255
0.358857
0.355598
0.352483
0.349512
0.34669
0.34402
0.341504
0.339144
0.336942
0.334902
0.333025
0.331312
0.329766
0.328389
0.32718
0.326142
0.325276
0.324582
0.324061
0.323714
0.323541
0.676469
0.676296
0.675949
0.675428
0.674734
0.673867
0.672829
0.671621
0.670243
0.668697
0.666984
0.665107
0.663067
0.660865
0.658505
0.655989
0.653318
0.650496
0.647526
0.64441
0.641151
0.637754
0.63422
0.630553
0.626758
0.622838
0.618796
0.614637
0.610365
0.605984
0.601498
0.596912
0.592231
0.587458
0.582599
0.577658
0.572641
0.567552
0.562397
0.557179
0.551906
0.546581
0.54121
0.535798
0.530351
0.524874
0.519373
0.513852
0.508318
0.502776
0.497231
0.491688
0.486154
0.480633
0.475132
0.469655
0.464208
0.458797
0.453426
0.448101
0.442827
0.43761
0.432454
0.427366
0.422348
0.417408
0.412549
0.407776
0.403095
0.398509
0.394023
0.389642
0.38537
0.381211
0.37717
0.373249
0.369454
0.365788
0.362254
0.358856
0.355598
0.352482
0.349511
0.34669
0.344019
0.341503
0.339143
0.336942
0.334901
0.333024
0.331312
0.329766
0.328388
0.327179
0.326141
0.325275
0.324581
0.32406
0.323713
0.32354
0.67647
0.676297
0.675949
0.675429
0.674735
0.673868
0.67283
0.671622
0.670244
0.668698
0.666985
0.665108
0.663068
0.660866
0.658506
0.65599
0.653319
0.650497
0.647527
0.644411
0.641152
0.637754
0.63422
0.630554
0.626759
0.622838
0.618796
0.614637
0.610365
0.605984
0.601499
0.596913
0.592231
0.587458
0.582599
0.577659
0.572641
0.567553
0.562397
0.55718
0.551906
0.546581
0.54121
0.535798
0.530351
0.524875
0.519373
0.513852
0.508318
0.502776
0.497231
0.491688
0.486154
0.480633
0.475132
0.469655
0.464208
0.458796
0.453425
0.448101
0.442827
0.43761
0.432454
0.427365
0.422348
0.417407
0.412548
0.407776
0.403094
0.398508
0.394023
0.389642
0.38537
0.381211
0.377169
0.373249
0.369453
0.365787
0.362253
0.358855
0.355597
0.352481
0.349511
0.346689
0.344018
0.341502
0.339142
0.336941
0.3349
0.333023
0.331311
0.329765
0.328387
0.327178
0.32614
0.325274
0.32458
0.324059
0.323712
0.323539
0.67647
0.676297
0.67595
0.67543
0.674736
0.673869
0.672831
0.671623
0.670245
0.668699
0.666986
0.665109
0.663068
0.660867
0.658507
0.65599
0.65332
0.650498
0.647528
0.644411
0.641153
0.637755
0.634221
0.630555
0.626759
0.622839
0.618797
0.614638
0.610366
0.605985
0.601499
0.596913
0.592231
0.587459
0.5826
0.577659
0.572642
0.567553
0.562397
0.55718
0.551906
0.546581
0.54121
0.535799
0.530352
0.524875
0.519373
0.513852
0.508318
0.502776
0.497231
0.491688
0.486154
0.480633
0.475132
0.469655
0.464208
0.458796
0.453425
0.4481
0.442827
0.437609
0.432454
0.427365
0.422348
0.417407
0.412548
0.407775
0.403094
0.398508
0.394022
0.389641
0.385369
0.38121
0.377168
0.373248
0.369453
0.365786
0.362253
0.358855
0.355596
0.35248
0.34951
0.346688
0.344018
0.341501
0.339141
0.33694
0.3349
0.333022
0.33131
0.329764
0.328386
0.327177
0.326139
0.325273
0.324579
0.324059
0.323712
0.323539
0.676471
0.676298
0.675951
0.67543
0.674736
0.67387
0.672832
0.671623
0.670245
0.668699
0.666987
0.665109
0.663069
0.660868
0.658508
0.655991
0.653321
0.650499
0.647528
0.644412
0.641153
0.637756
0.634222
0.630555
0.62676
0.622839
0.618798
0.614639
0.610366
0.605985
0.601499
0.596913
0.592232
0.587459
0.5826
0.577659
0.572642
0.567553
0.562397
0.55718
0.551906
0.546581
0.54121
0.535799
0.530352
0.524875
0.519373
0.513852
0.508318
0.502776
0.497231
0.491688
0.486154
0.480633
0.475132
0.469655
0.464208
0.458796
0.453425
0.4481
0.442826
0.437609
0.432453
0.427364
0.422347
0.417407
0.412548
0.407775
0.403093
0.398507
0.394022
0.389641
0.385368
0.381209
0.377168
0.373247
0.369452
0.365786
0.362252
0.358854
0.355595
0.352479
0.349509
0.346687
0.344017
0.3415
0.33914
0.336939
0.334899
0.333022
0.331309
0.329763
0.328385
0.327177
0.326139
0.325272
0.324579
0.324058
0.323711
0.323538
0.676472
0.676299
0.675952
0.675431
0.674737
0.673871
0.672833
0.671624
0.670246
0.6687
0.666988
0.66511
0.66307
0.660868
0.658508
0.655992
0.653321
0.650499
0.647529
0.644413
0.641154
0.637756
0.634222
0.630556
0.62676
0.62284
0.618798
0.614639
0.610367
0.605986
0.6015
0.596914
0.592232
0.587459
0.5826
0.57766
0.572642
0.567553
0.562398
0.55718
0.551907
0.546582
0.541211
0.535799
0.530352
0.524875
0.519373
0.513853
0.508318
0.502776
0.497231
0.491688
0.486154
0.480633
0.475131
0.469654
0.464207
0.458796
0.453425
0.4481
0.442826
0.437609
0.432453
0.427364
0.422347
0.417406
0.412547
0.407774
0.403093
0.398507
0.394021
0.38964
0.385368
0.381209
0.377167
0.373247
0.369452
0.365785
0.362251
0.358853
0.355595
0.352479
0.349508
0.346687
0.344016
0.3415
0.33914
0.336938
0.334898
0.333021
0.331308
0.329762
0.328384
0.327176
0.326138
0.325272
0.324578
0.324057
0.32371
0.323537
0.676473
0.6763
0.675953
0.675432
0.674738
0.673872
0.672834
0.671625
0.670247
0.668701
0.666988
0.665111
0.66307
0.660869
0.658509
0.655992
0.653322
0.6505
0.647529
0.644413
0.641155
0.637757
0.634223
0.630556
0.626761
0.62284
0.618799
0.614639
0.610367
0.605986
0.6015
0.596914
0.592233
0.58746
0.582601
0.57766
0.572643
0.567554
0.562398
0.557181
0.551907
0.546582
0.541211
0.535799
0.530352
0.524875
0.519373
0.513853
0.508318
0.502776
0.49723
0.491688
0.486154
0.480633
0.475131
0.469654
0.464207
0.458795
0.453424
0.448099
0.442826
0.437608
0.432453
0.427364
0.422346
0.417406
0.412547
0.407774
0.403092
0.398506
0.394021
0.38964
0.385367
0.381208
0.377167
0.373246
0.369451
0.365785
0.362251
0.358853
0.355594
0.352478
0.349508
0.346686
0.344015
0.341499
0.339139
0.336938
0.334897
0.33302
0.331308
0.329762
0.328384
0.327175
0.326137
0.325271
0.324577
0.324057
0.32371
0.323537
0.676474
0.676301
0.675953
0.675433
0.674739
0.673872
0.672834
0.671626
0.670248
0.668701
0.666989
0.665111
0.663071
0.66087
0.65851
0.655993
0.653322
0.6505
0.64753
0.644414
0.641155
0.637757
0.634223
0.630557
0.626761
0.622841
0.618799
0.61464
0.610368
0.605986
0.601501
0.596915
0.592233
0.58746
0.582601
0.57766
0.572643
0.567554
0.562398
0.557181
0.551907
0.546582
0.541211
0.535799
0.530352
0.524875
0.519373
0.513853
0.508318
0.502776
0.49723
0.491688
0.486153
0.480633
0.475131
0.469654
0.464207
0.458795
0.453424
0.448099
0.442825
0.437608
0.432452
0.427363
0.422346
0.417405
0.412546
0.407774
0.403092
0.398506
0.39402
0.389639
0.385367
0.381208
0.377166
0.373246
0.36945
0.365784
0.36225
0.358852
0.355594
0.352478
0.349507
0.346685
0.344015
0.341498
0.339138
0.336937
0.334897
0.333019
0.331307
0.329761
0.328383
0.327175
0.326137
0.32527
0.324577
0.324056
0.323709
0.323536
0.676474
0.676301
0.675954
0.675433
0.674739
0.673873
0.672835
0.671626
0.670248
0.668702
0.666989
0.665112
0.663072
0.66087
0.65851
0.655994
0.653323
0.650501
0.647531
0.644414
0.641156
0.637758
0.634224
0.630557
0.626762
0.622841
0.618799
0.61464
0.610368
0.605987
0.601501
0.596915
0.592233
0.58746
0.582601
0.577661
0.572643
0.567554
0.562398
0.557181
0.551907
0.546582
0.541211
0.535799
0.530352
0.524875
0.519373
0.513853
0.508318
0.502776
0.49723
0.491688
0.486153
0.480633
0.475131
0.469654
0.464207
0.458795
0.453424
0.448099
0.442825
0.437608
0.432452
0.427363
0.422346
0.417405
0.412546
0.407773
0.403092
0.398506
0.39402
0.389639
0.385366
0.381207
0.377166
0.373245
0.36945
0.365784
0.36225
0.358852
0.355593
0.352477
0.349507
0.346685
0.344014
0.341498
0.339138
0.336936
0.334896
0.333019
0.331306
0.32976
0.328383
0.327174
0.326136
0.32527
0.324576
0.324055
0.323708
0.323535
0.676475
0.676302
0.675955
0.675434
0.67474
0.673873
0.672835
0.671627
0.670249
0.668703
0.66699
0.665113
0.663072
0.660871
0.658511
0.655994
0.653323
0.650502
0.647531
0.644415
0.641156
0.637758
0.634224
0.630558
0.626762
0.622842
0.6188
0.614641
0.610368
0.605987
0.601501
0.596915
0.592233
0.587461
0.582601
0.577661
0.572643
0.567554
0.562398
0.557181
0.551907
0.546582
0.541211
0.535799
0.530352
0.524875
0.519373
0.513853
0.508318
0.502775
0.49723
0.491688
0.486153
0.480632
0.475131
0.469654
0.464207
0.458795
0.453424
0.448099
0.442825
0.437608
0.432452
0.427363
0.422345
0.417405
0.412546
0.407773
0.403091
0.398505
0.394019
0.389638
0.385366
0.381207
0.377165
0.373245
0.36945
0.365783
0.362249
0.358851
0.355593
0.352477
0.349506
0.346684
0.344014
0.341497
0.339137
0.336936
0.334896
0.333018
0.331306
0.32976
0.328382
0.327173
0.326136
0.325269
0.324575
0.324055
0.323708
0.323535
0.676475
0.676302
0.675955
0.675434
0.67474
0.673874
0.672836
0.671627
0.670249
0.668703
0.666991
0.665113
0.663073
0.660871
0.658511
0.655995
0.653324
0.650502
0.647531
0.644415
0.641157
0.637759
0.634224
0.630558
0.626763
0.622842
0.6188
0.614641
0.610369
0.605987
0.601502
0.596915
0.592234
0.587461
0.582602
0.577661
0.572644
0.567554
0.562399
0.557181
0.551907
0.546582
0.541211
0.535799
0.530352
0.524875
0.519373
0.513853
0.508318
0.502775
0.49723
0.491688
0.486153
0.480632
0.475131
0.469654
0.464207
0.458795
0.453424
0.448099
0.442825
0.437607
0.432452
0.427363
0.422345
0.417404
0.412545
0.407773
0.403091
0.398505
0.394019
0.389638
0.385366
0.381207
0.377165
0.373244
0.369449
0.365783
0.362249
0.358851
0.355592
0.352476
0.349506
0.346684
0.344013
0.341497
0.339137
0.336935
0.334895
0.333018
0.331305
0.329759
0.328381
0.327173
0.326135
0.325269
0.324575
0.324054
0.323707
0.323534
0.676476
0.676303
0.675956
0.675435
0.674741
0.673875
0.672836
0.671628
0.67025
0.668704
0.666991
0.665114
0.663073
0.660872
0.658512
0.655995
0.653324
0.650502
0.647532
0.644416
0.641157
0.637759
0.634225
0.630558
0.626763
0.622842
0.6188
0.614641
0.610369
0.605988
0.601502
0.596916
0.592234
0.587461
0.582602
0.577661
0.572644
0.567555
0.562399
0.557181
0.551907
0.546582
0.541211
0.535799
0.530352
0.524875
0.519373
0.513853
0.508318
0.502775
0.49723
0.491688
0.486153
0.480632
0.475131
0.469654
0.464206
0.458795
0.453423
0.448098
0.442825
0.437607
0.432451
0.427362
0.422345
0.417404
0.412545
0.407772
0.403091
0.398505
0.394019
0.389638
0.385365
0.381206
0.377165
0.373244
0.369449
0.365782
0.362248
0.35885
0.355592
0.352476
0.349505
0.346683
0.344013
0.341496
0.339136
0.336935
0.334895
0.333017
0.331305
0.329759
0.328381
0.327172
0.326135
0.325268
0.324574
0.324054
0.323707
0.323534
0.676476
0.676303
0.675956
0.675435
0.674741
0.673875
0.672837
0.671628
0.67025
0.668704
0.666991
0.665114
0.663074
0.660872
0.658512
0.655995
0.653325
0.650503
0.647532
0.644416
0.641157
0.637759
0.634225
0.630559
0.626763
0.622843
0.618801
0.614642
0.610369
0.605988
0.601502
0.596916
0.592234
0.587461
0.582602
0.577661
0.572644
0.567555
0.562399
0.557181
0.551908
0.546582
0.541211
0.535799
0.530352
0.524875
0.519373
0.513853
0.508318
0.502775
0.49723
0.491688
0.486153
0.480632
0.475131
0.469653
0.464206
0.458794
0.453423
0.448098
0.442824
0.437607
0.432451
0.427362
0.422345
0.417404
0.412545
0.407772
0.40309
0.398504
0.394018
0.389637
0.385365
0.381206
0.377164
0.373244
0.369448
0.365782
0.362248
0.35885
0.355591
0.352475
0.349505
0.346683
0.344012
0.341496
0.339136
0.336935
0.334894
0.333017
0.331304
0.329758
0.328381
0.327172
0.326134
0.325268
0.324574
0.324053
0.323706
0.323533
0.676477
0.676304
0.675957
0.675436
0.674742
0.673875
0.672837
0.671629
0.670251
0.668704
0.666992
0.665114
0.663074
0.660873
0.658512
0.655996
0.653325
0.650503
0.647533
0.644416
0.641158
0.63776
0.634225
0.630559
0.626763
0.622843
0.618801
0.614642
0.610369
0.605988
0.601502
0.596916
0.592234
0.587461
0.582602
0.577662
0.572644
0.567555
0.562399
0.557182
0.551908
0.546582
0.541211
0.535799
0.530352
0.524875
0.519373
0.513853
0.508318
0.502775
0.49723
0.491687
0.486153
0.480632
0.47513
0.469653
0.464206
0.458794
0.453423
0.448098
0.442824
0.437607
0.432451
0.427362
0.422344
0.417404
0.412545
0.407772
0.40309
0.398504
0.394018
0.389637
0.385365
0.381206
0.377164
0.373243
0.369448
0.365782
0.362248
0.35885
0.355591
0.352475
0.349504
0.346683
0.344012
0.341496
0.339135
0.336934
0.334894
0.333017
0.331304
0.329758
0.32838
0.327172
0.326134
0.325267
0.324574
0.324053
0.323706
0.323533
0.676477
0.676304
0.675957
0.675436
0.674742
0.673876
0.672838
0.671629
0.670251
0.668705
0.666992
0.665115
0.663074
0.660873
0.658513
0.655996
0.653325
0.650503
0.647533
0.644417
0.641158
0.63776
0.634226
0.630559
0.626764
0.622843
0.618801
0.614642
0.61037
0.605988
0.601502
0.596916
0.592235
0.587462
0.582602
0.577662
0.572644
0.567555
0.562399
0.557182
0.551908
0.546583
0.541211
0.5358
0.530352
0.524875
0.519373
0.513853
0.508318
0.502775
0.49723
0.491687
0.486153
0.480632
0.47513
0.469653
0.464206
0.458794
0.453423
0.448098
0.442824
0.437607
0.432451
0.427362
0.422344
0.417404
0.412544
0.407772
0.40309
0.398504
0.394018
0.389637
0.385364
0.381205
0.377164
0.373243
0.369448
0.365781
0.362247
0.358849
0.355591
0.352475
0.349504
0.346682
0.344012
0.341495
0.339135
0.336934
0.334894
0.333016
0.331304
0.329758
0.32838
0.327171
0.326133
0.325267
0.324573
0.324053
0.323706
0.323533
0.676477
0.676304
0.675957
0.675436
0.674743
0.673876
0.672838
0.671629
0.670251
0.668705
0.666993
0.665115
0.663075
0.660873
0.658513
0.655996
0.653326
0.650504
0.647533
0.644417
0.641158
0.63776
0.634226
0.630559
0.626764
0.622843
0.618801
0.614642
0.61037
0.605989
0.601503
0.596916
0.592235
0.587462
0.582603
0.577662
0.572644
0.567555
0.562399
0.557182
0.551908
0.546583
0.541211
0.5358
0.530352
0.524875
0.519373
0.513853
0.508318
0.502775
0.49723
0.491687
0.486153
0.480632
0.47513
0.469653
0.464206
0.458794
0.453423
0.448098
0.442824
0.437606
0.432451
0.427362
0.422344
0.417403
0.412544
0.407771
0.40309
0.398504
0.394018
0.389636
0.385364
0.381205
0.377163
0.373243
0.369447
0.365781
0.362247
0.358849
0.35559
0.352474
0.349504
0.346682
0.344011
0.341495
0.339135
0.336934
0.334893
0.333016
0.331303
0.329757
0.32838
0.327171
0.326133
0.325267
0.324573
0.324052
0.323705
0.323532
0.676478
0.676305
0.675958
0.675437
0.674743
0.673876
0.672838
0.67163
0.670252
0.668705
0.666993
0.665115
0.663075
0.660873
0.658513
0.655997
0.653326
0.650504
0.647533
0.644417
0.641158
0.63776
0.634226
0.63056
0.626764
0.622843
0.618802
0.614642
0.61037
0.605989
0.601503
0.596917
0.592235
0.587462
0.582603
0.577662
0.572644
0.567555
0.562399
0.557182
0.551908
0.546583
0.541211
0.5358
0.530352
0.524875
0.519373
0.513853
0.508318
0.502775
0.49723
0.491687
0.486153
0.480632
0.47513
0.469653
0.464206
0.458794
0.453423
0.448098
0.442824
0.437606
0.43245
0.427361
0.422344
0.417403
0.412544
0.407771
0.403089
0.398503
0.394018
0.389636
0.385364
0.381205
0.377163
0.373243
0.369447
0.365781
0.362247
0.358849
0.35559
0.352474
0.349504
0.346682
0.344011
0.341495
0.339135
0.336933
0.334893
0.333016
0.331303
0.329757
0.328379
0.327171
0.326133
0.325267
0.324573
0.324052
0.323705
0.323532
0.676478
0.676305
0.675958
0.675437
0.674743
0.673877
0.672838
0.67163
0.670252
0.668706
0.666993
0.665116
0.663075
0.660874
0.658513
0.655997
0.653326
0.650504
0.647534
0.644417
0.641159
0.63776
0.634226
0.63056
0.626764
0.622844
0.618802
0.614643
0.61037
0.605989
0.601503
0.596917
0.592235
0.587462
0.582603
0.577662
0.572644
0.567555
0.562399
0.557182
0.551908
0.546583
0.541211
0.5358
0.530352
0.524875
0.519373
0.513853
0.508318
0.502775
0.49723
0.491687
0.486153
0.480632
0.47513
0.469653
0.464206
0.458794
0.453423
0.448098
0.442824
0.437606
0.43245
0.427361
0.422344
0.417403
0.412544
0.407771
0.403089
0.398503
0.394017
0.389636
0.385364
0.381205
0.377163
0.373242
0.369447
0.365781
0.362247
0.358849
0.35559
0.352474
0.349503
0.346681
0.344011
0.341494
0.339134
0.336933
0.334893
0.333015
0.331303
0.329757
0.328379
0.327171
0.326133
0.325266
0.324573
0.324052
0.323705
0.323532
0.676478
0.676305
0.675958
0.675437
0.674743
0.673877
0.672839
0.67163
0.670252
0.668706
0.666993
0.665116
0.663075
0.660874
0.658514
0.655997
0.653326
0.650504
0.647534
0.644417
0.641159
0.637761
0.634226
0.63056
0.626764
0.622844
0.618802
0.614643
0.61037
0.605989
0.601503
0.596917
0.592235
0.587462
0.582603
0.577662
0.572644
0.567555
0.562399
0.557182
0.551908
0.546583
0.541211
0.5358
0.530352
0.524875
0.519373
0.513853
0.508318
0.502775
0.49723
0.491687
0.486153
0.480632
0.47513
0.469653
0.464206
0.458794
0.453423
0.448097
0.442824
0.437606
0.43245
0.427361
0.422344
0.417403
0.412544
0.407771
0.403089
0.398503
0.394017
0.389636
0.385364
0.381205
0.377163
0.373242
0.369447
0.36578
0.362246
0.358848
0.35559
0.352474
0.349503
0.346681
0.344011
0.341494
0.339134
0.336933
0.334893
0.333015
0.331303
0.329757
0.328379
0.32717
0.326132
0.325266
0.324572
0.324052
0.323705
0.323532
0.676478
0.676305
0.675958
0.675437
0.674743
0.673877
0.672839
0.67163
0.670252
0.668706
0.666993
0.665116
0.663075
0.660874
0.658514
0.655997
0.653326
0.650504
0.647534
0.644418
0.641159
0.637761
0.634227
0.63056
0.626764
0.622844
0.618802
0.614643
0.61037
0.605989
0.601503
0.596917
0.592235
0.587462
0.582603
0.577662
0.572645
0.567555
0.562399
0.557182
0.551908
0.546583
0.541211
0.5358
0.530352
0.524875
0.519373
0.513853
0.508318
0.502775
0.49723
0.491687
0.486153
0.480632
0.47513
0.469653
0.464206
0.458794
0.453423
0.448097
0.442824
0.437606
0.43245
0.427361
0.422344
0.417403
0.412544
0.407771
0.403089
0.398503
0.394017
0.389636
0.385364
0.381204
0.377163
0.373242
0.369447
0.36578
0.362246
0.358848
0.35559
0.352474
0.349503
0.346681
0.344011
0.341494
0.339134
0.336933
0.334892
0.333015
0.331303
0.329757
0.328379
0.32717
0.326132
0.325266
0.324572
0.324052
0.323705
0.323532
0.676478
0.676305
0.675958
0.675437
0.674743
0.673877
0.672839
0.67163
0.670252
0.668706
0.666993
0.665116
0.663075
0.660874
0.658514
0.655997
0.653326
0.650504
0.647534
0.644418
0.641159
0.637761
0.634227
0.63056
0.626764
0.622844
0.618802
0.614643
0.61037
0.605989
0.601503
0.596917
0.592235
0.587462
0.582603
0.577662
0.572645
0.567555
0.562399
0.557182
0.551908
0.546583
0.541211
0.5358
0.530352
0.524875
0.519373
0.513852
0.508318
0.502775
0.49723
0.491687
0.486153
0.480632
0.47513
0.469653
0.464206
0.458794
0.453423
0.448097
0.442823
0.437606
0.43245
0.427361
0.422344
0.417403
0.412544
0.407771
0.403089
0.398503
0.394017
0.389636
0.385364
0.381204
0.377163
0.373242
0.369447
0.36578
0.362246
0.358848
0.35559
0.352473
0.349503
0.346681
0.344011
0.341494
0.339134
0.336933
0.334892
0.333015
0.331303
0.329757
0.328379
0.32717
0.326132
0.325266
0.324572
0.324052
0.323705
0.323532
0.676478
0.676305
0.675958
0.675437
0.674743
0.673877
0.672839
0.67163
0.670252
0.668706
0.666993
0.665116
0.663075
0.660874
0.658514
0.655997
0.653326
0.650504
0.647534
0.644418
0.641159
0.637761
0.634227
0.63056
0.626764
0.622844
0.618802
0.614643
0.61037
0.605989
0.601503
0.596917
0.592235
0.587462
0.582603
0.577662
0.572645
0.567555
0.562399
0.557182
0.551908
0.546583
0.541211
0.5358
0.530352
0.524875
0.519373
0.513852
0.508318
0.502775
0.49723
0.491687
0.486153
0.480632
0.47513
0.469653
0.464206
0.458794
0.453422
0.448097
0.442823
0.437606
0.43245
0.427361
0.422343
0.417403
0.412544
0.407771
0.403089
0.398503
0.394017
0.389636
0.385363
0.381204
0.377163
0.373242
0.369447
0.36578
0.362246
0.358848
0.355589
0.352473
0.349503
0.346681
0.344011
0.341494
0.339134
0.336933
0.334892
0.333015
0.331303
0.329757
0.328379
0.32717
0.326132
0.325266
0.324572
0.324051
0.323705
0.323532
0.676478
0.676305
0.675958
0.675437
0.674743
0.673877
0.672839
0.67163
0.670252
0.668706
0.666993
0.665116
0.663075
0.660874
0.658514
0.655997
0.653326
0.650504
0.647534
0.644418
0.641159
0.637761
0.634227
0.63056
0.626764
0.622844
0.618802
0.614643
0.61037
0.605989
0.601503
0.596917
0.592235
0.587462
0.582603
0.577662
0.572644
0.567555
0.562399
0.557182
0.551908
0.546583
0.541211
0.5358
0.530352
0.524875
0.519373
0.513852
0.508318
0.502775
0.49723
0.491687
0.486153
0.480632
0.47513
0.469653
0.464206
0.458794
0.453422
0.448097
0.442823
0.437606
0.43245
0.427361
0.422343
0.417403
0.412544
0.407771
0.403089
0.398503
0.394017
0.389636
0.385363
0.381204
0.377163
0.373242
0.369447
0.36578
0.362246
0.358848
0.355589
0.352473
0.349503
0.346681
0.344011
0.341494
0.339134
0.336933
0.334892
0.333015
0.331303
0.329757
0.328379
0.32717
0.326132
0.325266
0.324572
0.324051
0.323705
0.323532
0.676478
0.676305
0.675958
0.675437
0.674743
0.673877
0.672839
0.67163
0.670252
0.668706
0.666993
0.665116
0.663075
0.660874
0.658514
0.655997
0.653326
0.650504
0.647534
0.644418
0.641159
0.637761
0.634227
0.63056
0.626764
0.622844
0.618802
0.614643
0.61037
0.605989
0.601503
0.596917
0.592235
0.587462
0.582603
0.577662
0.572644
0.567555
0.562399
0.557182
0.551908
0.546583
0.541211
0.535799
0.530352
0.524875
0.519373
0.513852
0.508318
0.502775
0.49723
0.491687
0.486152
0.480632
0.47513
0.469653
0.464205
0.458794
0.453422
0.448097
0.442823
0.437606
0.43245
0.427361
0.422343
0.417403
0.412544
0.407771
0.403089
0.398503
0.394017
0.389636
0.385363
0.381204
0.377163
0.373242
0.369447
0.36578
0.362246
0.358848
0.355589
0.352473
0.349503
0.346681
0.344011
0.341494
0.339134
0.336933
0.334892
0.333015
0.331303
0.329757
0.328379
0.32717
0.326132
0.325266
0.324572
0.324052
0.323705
0.323532
0.676478
0.676305
0.675958
0.675437
0.674743
0.673877
0.672839
0.67163
0.670252
0.668706
0.666993
0.665116
0.663075
0.660874
0.658514
0.655997
0.653326
0.650504
0.647534
0.644417
0.641159
0.637761
0.634226
0.63056
0.626764
0.622844
0.618802
0.614643
0.61037
0.605989
0.601503
0.596917
0.592235
0.587462
0.582603
0.577662
0.572644
0.567555
0.562399
0.557182
0.551908
0.546583
0.541211
0.535799
0.530352
0.524875
0.519373
0.513852
0.508318
0.502775
0.49723
0.491687
0.486152
0.480632
0.47513
0.469653
0.464205
0.458794
0.453422
0.448097
0.442823
0.437606
0.43245
0.427361
0.422343
0.417403
0.412544
0.407771
0.403089
0.398503
0.394017
0.389636
0.385363
0.381204
0.377163
0.373242
0.369447
0.36578
0.362246
0.358848
0.35559
0.352473
0.349503
0.346681
0.344011
0.341494
0.339134
0.336933
0.334892
0.333015
0.331303
0.329757
0.328379
0.32717
0.326132
0.325266
0.324572
0.324052
0.323705
0.323532
0.676478
0.676305
0.675958
0.675437
0.674743
0.673877
0.672839
0.67163
0.670252
0.668706
0.666993
0.665116
0.663075
0.660874
0.658514
0.655997
0.653326
0.650504
0.647534
0.644417
0.641159
0.63776
0.634226
0.63056
0.626764
0.622844
0.618802
0.614642
0.61037
0.605989
0.601503
0.596917
0.592235
0.587462
0.582603
0.577662
0.572644
0.567555
0.562399
0.557182
0.551908
0.546582
0.541211
0.535799
0.530352
0.524875
0.519373
0.513852
0.508318
0.502775
0.49723
0.491687
0.486152
0.480632
0.47513
0.469653
0.464205
0.458794
0.453422
0.448097
0.442823
0.437606
0.43245
0.427361
0.422343
0.417403
0.412544
0.407771
0.403089
0.398503
0.394017
0.389636
0.385364
0.381204
0.377163
0.373242
0.369447
0.36578
0.362246
0.358848
0.35559
0.352474
0.349503
0.346681
0.344011
0.341494
0.339134
0.336933
0.334893
0.333015
0.331303
0.329757
0.328379
0.32717
0.326132
0.325266
0.324572
0.324052
0.323705
0.323532
0.676478
0.676305
0.675958
0.675437
0.674743
0.673877
0.672839
0.67163
0.670252
0.668706
0.666993
0.665116
0.663075
0.660874
0.658513
0.655997
0.653326
0.650504
0.647533
0.644417
0.641158
0.63776
0.634226
0.63056
0.626764
0.622843
0.618802
0.614642
0.61037
0.605989
0.601503
0.596917
0.592235
0.587462
0.582602
0.577662
0.572644
0.567555
0.562399
0.557182
0.551908
0.546582
0.541211
0.535799
0.530352
0.524875
0.519373
0.513852
0.508318
0.502775
0.49723
0.491687
0.486152
0.480632
0.47513
0.469653
0.464205
0.458794
0.453422
0.448097
0.442823
0.437606
0.43245
0.427361
0.422344
0.417403
0.412544
0.407771
0.403089
0.398503
0.394017
0.389636
0.385364
0.381205
0.377163
0.373242
0.369447
0.36578
0.362246
0.358848
0.35559
0.352474
0.349503
0.346681
0.344011
0.341494
0.339134
0.336933
0.334893
0.333015
0.331303
0.329757
0.328379
0.327171
0.326133
0.325266
0.324573
0.324052
0.323705
0.323532
0.676478
0.676305
0.675958
0.675437
0.674743
0.673876
0.672838
0.67163
0.670252
0.668705
0.666993
0.665115
0.663075
0.660873
0.658513
0.655997
0.653326
0.650504
0.647533
0.644417
0.641158
0.63776
0.634226
0.630559
0.626764
0.622843
0.618801
0.614642
0.61037
0.605988
0.601503
0.596916
0.592235
0.587462
0.582602
0.577662
0.572644
0.567555
0.562399
0.557181
0.551908
0.546582
0.541211
0.535799
0.530352
0.524875
0.519373
0.513852
0.508318
0.502775
0.49723
0.491687
0.486152
0.480632
0.47513
0.469653
0.464205
0.458794
0.453422
0.448097
0.442823
0.437606
0.43245
0.427361
0.422344
0.417403
0.412544
0.407771
0.403089
0.398503
0.394017
0.389636
0.385364
0.381205
0.377163
0.373242
0.369447
0.365781
0.362247
0.358849
0.35559
0.352474
0.349503
0.346682
0.344011
0.341495
0.339134
0.336933
0.334893
0.333016
0.331303
0.329757
0.328379
0.327171
0.326133
0.325267
0.324573
0.324052
0.323705
0.323532
0.676478
0.676305
0.675957
0.675437
0.674743
0.673876
0.672838
0.671629
0.670251
0.668705
0.666993
0.665115
0.663075
0.660873
0.658513
0.655996
0.653326
0.650504
0.647533
0.644417
0.641158
0.63776
0.634226
0.630559
0.626764
0.622843
0.618801
0.614642
0.61037
0.605988
0.601502
0.596916
0.592234
0.587461
0.582602
0.577661
0.572644
0.567555
0.562399
0.557181
0.551907
0.546582
0.541211
0.535799
0.530352
0.524875
0.519373
0.513852
0.508318
0.502775
0.49723
0.491687
0.486152
0.480632
0.47513
0.469653
0.464205
0.458794
0.453423
0.448097
0.442823
0.437606
0.43245
0.427361
0.422344
0.417403
0.412544
0.407771
0.403089
0.398503
0.394017
0.389636
0.385364
0.381205
0.377163
0.373243
0.369447
0.365781
0.362247
0.358849
0.35559
0.352474
0.349504
0.346682
0.344011
0.341495
0.339135
0.336933
0.334893
0.333016
0.331303
0.329757
0.32838
0.327171
0.326133
0.325267
0.324573
0.324052
0.323705
0.323533
0.676477
0.676304
0.675957
0.675436
0.674742
0.673876
0.672838
0.671629
0.670251
0.668705
0.666992
0.665115
0.663074
0.660873
0.658513
0.655996
0.653325
0.650503
0.647533
0.644417
0.641158
0.63776
0.634226
0.630559
0.626763
0.622843
0.618801
0.614642
0.610369
0.605988
0.601502
0.596916
0.592234
0.587461
0.582602
0.577661
0.572644
0.567555
0.562399
0.557181
0.551907
0.546582
0.541211
0.535799
0.530352
0.524875
0.519373
0.513852
0.508318
0.502775
0.49723
0.491687
0.486152
0.480632
0.47513
0.469653
0.464206
0.458794
0.453423
0.448097
0.442824
0.437606
0.43245
0.427361
0.422344
0.417403
0.412544
0.407771
0.403089
0.398503
0.394018
0.389636
0.385364
0.381205
0.377163
0.373243
0.369447
0.365781
0.362247
0.358849
0.35559
0.352474
0.349504
0.346682
0.344012
0.341495
0.339135
0.336934
0.334893
0.333016
0.331304
0.329758
0.32838
0.327171
0.326133
0.325267
0.324573
0.324053
0.323706
0.323533
0.676477
0.676304
0.675957
0.675436
0.674742
0.673876
0.672837
0.671629
0.670251
0.668705
0.666992
0.665114
0.663074
0.660873
0.658512
0.655996
0.653325
0.650503
0.647532
0.644416
0.641157
0.637759
0.634225
0.630559
0.626763
0.622843
0.618801
0.614641
0.610369
0.605988
0.601502
0.596916
0.592234
0.587461
0.582602
0.577661
0.572644
0.567554
0.562399
0.557181
0.551907
0.546582
0.541211
0.535799
0.530352
0.524875
0.519373
0.513852
0.508318
0.502775
0.49723
0.491687
0.486152
0.480632
0.47513
0.469653
0.464206
0.458794
0.453423
0.448098
0.442824
0.437606
0.43245
0.427361
0.422344
0.417403
0.412544
0.407771
0.40309
0.398504
0.394018
0.389637
0.385364
0.381205
0.377163
0.373243
0.369448
0.365781
0.362247
0.358849
0.355591
0.352475
0.349504
0.346682
0.344012
0.341495
0.339135
0.336934
0.334894
0.333017
0.331304
0.329758
0.32838
0.327172
0.326134
0.325268
0.324574
0.324053
0.323706
0.323533
0.676477
0.676304
0.675956
0.675436
0.674742
0.673875
0.672837
0.671628
0.67025
0.668704
0.666992
0.665114
0.663074
0.660872
0.658512
0.655995
0.653325
0.650503
0.647532
0.644416
0.641157
0.637759
0.634225
0.630558
0.626763
0.622842
0.6188
0.614641
0.610369
0.605988
0.601502
0.596916
0.592234
0.587461
0.582602
0.577661
0.572643
0.567554
0.562398
0.557181
0.551907
0.546582
0.541211
0.535799
0.530352
0.524874
0.519373
0.513852
0.508317
0.502775
0.49723
0.491687
0.486152
0.480632
0.47513
0.469653
0.464206
0.458794
0.453423
0.448098
0.442824
0.437606
0.432451
0.427361
0.422344
0.417403
0.412544
0.407772
0.40309
0.398504
0.394018
0.389637
0.385365
0.381206
0.377164
0.373243
0.369448
0.365782
0.362248
0.35885
0.355591
0.352475
0.349505
0.346683
0.344012
0.341496
0.339136
0.336934
0.334894
0.333017
0.331304