/*--------------------------------*- C++ -*----------------------------------*\
  =========                 |
  \\      /  F ield         | OpenFOAM: The Open Source CFD Toolbox
   \\    /   O peration     | Website:  https://openfoam.org
    \\  /    A nd           | Version:  6
     \\/     M anipulation  |
\*---------------------------------------------------------------------------*/
FoamFile
{
    version     2.0;
    format      ascii;
    class       volScalarField;
    location    "15";
    object      T;
}
// * * * * * * * * * * * * * * * * * * * * * * * * * * * * * * * * * * * * * //

dimensions      [0 0 0 1 0 0 0];

internalField   nonuniform List<scalar> 
5000
(
0.644862
0.64472
0.644435
0.644007
0.643438
0.642727
0.641874
0.640882
0.639751
0.638482
0.637076
0.635535
0.63386
0.632053
0.630115
0.628049
0.625857
0.62354
0.621102
0.618544
0.615869
0.61308
0.610179
0.607169
0.604053
0.600835
0.597517
0.594103
0.590596
0.587
0.583317
0.579553
0.57571
0.571792
0.567803
0.563748
0.559629
0.555452
0.55122
0.546937
0.542608
0.538237
0.533828
0.529386
0.524915
0.520419
0.515903
0.511372
0.506829
0.502279
0.497728
0.493178
0.488635
0.484104
0.479588
0.475092
0.470621
0.466179
0.46177
0.457399
0.45307
0.448787
0.444555
0.440378
0.43626
0.432204
0.428215
0.424298
0.420455
0.41669
0.413008
0.409412
0.405905
0.402491
0.399173
0.395955
0.392839
0.38983
0.386929
0.384139
0.381464
0.378906
0.376468
0.374151
0.371959
0.369893
0.367956
0.366149
0.364474
0.362933
0.361527
0.360258
0.359127
0.358135
0.357282
0.356571
0.356001
0.355574
0.355289
0.355146
0.644863
0.644721
0.644436
0.644008
0.643439
0.642727
0.641875
0.640883
0.639752
0.638483
0.637077
0.635536
0.633861
0.632053
0.630116
0.62805
0.625858
0.623541
0.621103
0.618545
0.61587
0.61308
0.610179
0.607169
0.604054
0.600836
0.597518
0.594104
0.590597
0.587
0.583318
0.579553
0.57571
0.571793
0.567804
0.563748
0.55963
0.555452
0.55122
0.546938
0.542609
0.538237
0.533829
0.529386
0.524915
0.520419
0.515903
0.511372
0.506829
0.502279
0.497728
0.493178
0.488635
0.484104
0.479588
0.475092
0.470621
0.466179
0.46177
0.457399
0.45307
0.448787
0.444555
0.440378
0.436259
0.432204
0.428215
0.424297
0.420454
0.41669
0.413007
0.409411
0.405904
0.40249
0.399172
0.395954
0.392839
0.389829
0.386928
0.384138
0.381464
0.378906
0.376467
0.374151
0.371958
0.369893
0.367955
0.366148
0.364473
0.362932
0.361526
0.360257
0.359126
0.358134
0.357282
0.35657
0.356001
0.355573
0.355288
0.355146
0.644864
0.644722
0.644437
0.644009
0.643439
0.642728
0.641876
0.640884
0.639753
0.638483
0.637077
0.635536
0.633861
0.632054
0.630117
0.628051
0.625858
0.623542
0.621103
0.618545
0.61587
0.613081
0.61018
0.60717
0.604054
0.600836
0.597518
0.594104
0.590597
0.587001
0.583318
0.579554
0.575711
0.571793
0.567804
0.563749
0.55963
0.555453
0.55122
0.546938
0.542609
0.538238
0.533829
0.529387
0.524915
0.52042
0.515904
0.511372
0.506829
0.502279
0.497728
0.493178
0.488635
0.484104
0.479588
0.475092
0.470621
0.466178
0.46177
0.457398
0.453069
0.448787
0.444555
0.440377
0.436259
0.432203
0.428215
0.424297
0.420454
0.416689
0.413007
0.409411
0.405904
0.40249
0.399172
0.395954
0.392838
0.389828
0.386927
0.384138
0.381463
0.378905
0.376466
0.37415
0.371958
0.369892
0.367954
0.366147
0.364472
0.362931
0.361525
0.360256
0.359125
0.358133
0.357281
0.35657
0.356
0.355572
0.355287
0.355145
0.644864
0.644722
0.644437
0.64401
0.64344
0.642729
0.641877
0.640885
0.639753
0.638484
0.637078
0.635537
0.633862
0.632055
0.630117
0.628051
0.625859
0.623543
0.621104
0.618546
0.615871
0.613081
0.61018
0.607171
0.604055
0.600837
0.597519
0.594105
0.590598
0.587001
0.583319
0.579554
0.575711
0.571793
0.567805
0.563749
0.55963
0.555453
0.551221
0.546938
0.542609
0.538238
0.533829
0.529387
0.524915
0.52042
0.515904
0.511372
0.506829
0.502279
0.497728
0.493178
0.488635
0.484103
0.479587
0.475092
0.47062
0.466178
0.461769
0.457398
0.453069
0.448786
0.444554
0.440377
0.436258
0.432203
0.428214
0.424296
0.420453
0.416689
0.413006
0.40941
0.405903
0.402489
0.399171
0.395953
0.392837
0.389828
0.386927
0.384137
0.381462
0.378904
0.376466
0.374149
0.371957
0.369891
0.367954
0.366147
0.364472
0.362931
0.361525
0.360256
0.359124
0.358132
0.35728
0.356569
0.355999
0.355572
0.355287
0.355145
0.644865
0.644723
0.644438
0.644011
0.643441
0.64273
0.641877
0.640885
0.639754
0.638485
0.637079
0.635538
0.633863
0.632055
0.630118
0.628052
0.62586
0.623543
0.621105
0.618547
0.615871
0.613082
0.610181
0.607171
0.604055
0.600837
0.597519
0.594105
0.590598
0.587001
0.583319
0.579555
0.575711
0.571794
0.567805
0.563749
0.559631
0.555453
0.551221
0.546938
0.542609
0.538238
0.533829
0.529387
0.524916
0.52042
0.515904
0.511372
0.506829
0.502279
0.497728
0.493178
0.488635
0.484103
0.479587
0.475091
0.47062
0.466178
0.461769
0.457398
0.453069
0.448786
0.444554
0.440377
0.436258
0.432202
0.428214
0.424296
0.420453
0.416688
0.413006
0.40941
0.405903
0.402489
0.399171
0.395952
0.392837
0.389827
0.386926
0.384137
0.381462
0.378904
0.376465
0.374149
0.371956
0.369891
0.367953
0.366146
0.364471
0.36293
0.361524
0.360255
0.359124
0.358132
0.357279
0.356568
0.355999
0.355571
0.355286
0.355144
0.644866
0.644724
0.644439
0.644011
0.643442
0.64273
0.641878
0.640886
0.639755
0.638485
0.63708
0.635538
0.633863
0.632056
0.630119
0.628053
0.62586
0.623544
0.621105
0.618547
0.615872
0.613082
0.610181
0.607172
0.604056
0.600837
0.59752
0.594105
0.590598
0.587002
0.583319
0.579555
0.575712
0.571794
0.567805
0.563749
0.559631
0.555453
0.551221
0.546938
0.542609
0.538238
0.533829
0.529387
0.524916
0.52042
0.515904
0.511372
0.506829
0.502279
0.497728
0.493178
0.488635
0.484103
0.479587
0.475091
0.47062
0.466178
0.461769
0.457398
0.453069
0.448786
0.444554
0.440376
0.436258
0.432202
0.428213
0.424296
0.420452
0.416688
0.413006
0.409409
0.405902
0.402488
0.39917
0.395952
0.392836
0.389827
0.386925
0.384136
0.381461
0.378903
0.376465
0.374148
0.371956
0.36989
0.367952
0.366145
0.36447
0.362929
0.361523
0.360254
0.359123
0.358131
0.357279
0.356568
0.355998
0.35557
0.355286
0.355144
0.644867
0.644724
0.644439
0.644012
0.643442
0.642731
0.641879
0.640887
0.639755
0.638486
0.63708
0.635539
0.633864
0.632057
0.630119
0.628053
0.625861
0.623544
0.621106
0.618548
0.615872
0.613083
0.610182
0.607172
0.604056
0.600838
0.59752
0.594106
0.590599
0.587002
0.58332
0.579555
0.575712
0.571794
0.567805
0.56375
0.559631
0.555454
0.551221
0.546939
0.542609
0.538238
0.533829
0.529387
0.524916
0.52042
0.515904
0.511372
0.506829
0.502279
0.497728
0.493178
0.488635
0.484103
0.479587
0.475091
0.47062
0.466178
0.461769
0.457398
0.453068
0.448786
0.444553
0.440376
0.436257
0.432202
0.428213
0.424295
0.420452
0.416688
0.413005
0.409409
0.405902
0.402488
0.39917
0.395951
0.392836
0.389826
0.386925
0.384136
0.381461
0.378902
0.376464
0.374147
0.371955
0.369889
0.367952
0.366145
0.36447
0.362929
0.361523
0.360254
0.359122
0.35813
0.357278
0.356567
0.355997
0.35557
0.355285
0.355143
0.644867
0.644725
0.64444
0.644013
0.643443
0.642732
0.641879
0.640887
0.639756
0.638487
0.637081
0.635539
0.633864
0.632057
0.63012
0.628054
0.625861
0.623545
0.621106
0.618548
0.615873
0.613083
0.610182
0.607172
0.604057
0.600838
0.59752
0.594106
0.590599
0.587003
0.58332
0.579556
0.575712
0.571794
0.567806
0.56375
0.559631
0.555454
0.551222
0.546939
0.54261
0.538238
0.533829
0.529387
0.524916
0.52042
0.515904
0.511372
0.506829
0.502279
0.497727
0.493178
0.488635
0.484103
0.479587
0.475091
0.47062
0.466177
0.461768
0.457397
0.453068
0.448785
0.444553
0.440376
0.436257
0.432201
0.428213
0.424295
0.420452
0.416687
0.413005
0.409408
0.405901
0.402487
0.399169
0.395951
0.392835
0.389826
0.386924
0.384135
0.38146
0.378902
0.376463
0.374147
0.371955
0.369889
0.367951
0.366144
0.364469
0.362928
0.361522
0.360253
0.359122
0.35813
0.357278
0.356566
0.355997
0.355569
0.355285
0.355143
0.644868
0.644726
0.644441
0.644013
0.643443
0.642732
0.64188
0.640888
0.639756
0.638487
0.637081
0.63554
0.633865
0.632058
0.63012
0.628054
0.625862
0.623545
0.621107
0.618548
0.615873
0.613084
0.610183
0.607173
0.604057
0.600839
0.597521
0.594107
0.590599
0.587003
0.58332
0.579556
0.575713
0.571795
0.567806
0.56375
0.559631
0.555454
0.551222
0.546939
0.54261
0.538239
0.53383
0.529387
0.524916
0.52042
0.515904
0.511372
0.506829
0.502279
0.497727
0.493178
0.488635
0.484103
0.479587
0.475091
0.47062
0.466177
0.461768
0.457397
0.453068
0.448785
0.444553
0.440376
0.436257
0.432201
0.428212
0.424295
0.420451
0.416687
0.413004
0.409408
0.405901
0.402487
0.399169
0.395951
0.392835
0.389825
0.386924
0.384135
0.38146
0.378901
0.376463
0.374146
0.371954
0.369888
0.367951
0.366144
0.364469
0.362928
0.361522
0.360253
0.359121
0.358129
0.357277
0.356566
0.355996
0.355569
0.355284
0.355142
0.644868
0.644726
0.644441
0.644014
0.643444
0.642733
0.64188
0.640888
0.639757
0.638488
0.637082
0.63554
0.633865
0.632058
0.630121
0.628055
0.625862
0.623546
0.621107
0.618549
0.615874
0.613084
0.610183
0.607173
0.604057
0.600839
0.597521
0.594107
0.5906
0.587003
0.583321
0.579556
0.575713
0.571795
0.567806
0.56375
0.559632
0.555454
0.551222
0.546939
0.54261
0.538239
0.53383
0.529387
0.524916
0.52042
0.515904
0.511372
0.506829
0.502279
0.497727
0.493178
0.488635
0.484103
0.479587
0.475091
0.470619
0.466177
0.461768
0.457397
0.453068
0.448785
0.444553
0.440375
0.436257
0.432201
0.428212
0.424294
0.420451
0.416686
0.413004
0.409408
0.405901
0.402486
0.399169
0.39595
0.392835
0.389825
0.386924
0.384134
0.381459
0.378901
0.376463
0.374146
0.371954
0.369888
0.36795
0.366143
0.364468
0.362927
0.361521
0.360252
0.359121
0.358129
0.357277
0.356565
0.355996
0.355568
0.355284
0.355142
0.644869
0.644727
0.644442
0.644014
0.643444
0.642733
0.641881
0.640889
0.639757
0.638488
0.637082
0.635541
0.633866
0.632059
0.630121
0.628055
0.625863
0.623546
0.621107
0.618549
0.615874
0.613085
0.610183
0.607174
0.604058
0.600839
0.597521
0.594107
0.5906
0.587003
0.583321
0.579556
0.575713
0.571795
0.567806
0.563751
0.559632
0.555454
0.551222
0.546939
0.54261
0.538239
0.53383
0.529387
0.524916
0.52042
0.515904
0.511372
0.506829
0.502279
0.497727
0.493178
0.488635
0.484103
0.479587
0.475091
0.470619
0.466177
0.461768
0.457397
0.453068
0.448785
0.444553
0.440375
0.436256
0.432201
0.428212
0.424294
0.420451
0.416686
0.413004
0.409407
0.4059
0.402486
0.399168
0.39595
0.392834
0.389824
0.386923
0.384134
0.381459
0.378901
0.376462
0.374146
0.371953
0.369887
0.36795
0.366143
0.364468
0.362927
0.361521
0.360252
0.35912
0.358128
0.357276
0.356565
0.355995
0.355568
0.355283
0.355141
0.644869
0.644727
0.644442
0.644015
0.643445
0.642734
0.641881
0.640889
0.639758
0.638489
0.637083
0.635541
0.633866
0.632059
0.630121
0.628055
0.625863
0.623546
0.621108
0.61855
0.615874
0.613085
0.610184
0.607174
0.604058
0.60084
0.597522
0.594107
0.5906
0.587004
0.583321
0.579557
0.575713
0.571795
0.567806
0.563751
0.559632
0.555454
0.551222
0.546939
0.54261
0.538239
0.53383
0.529387
0.524916
0.52042
0.515904
0.511372
0.506829
0.502279
0.497727
0.493178
0.488634
0.484103
0.479587
0.475091
0.470619
0.466177
0.461768
0.457397
0.453067
0.448785
0.444552
0.440375
0.436256
0.4322
0.428212
0.424294
0.420451
0.416686
0.413003
0.409407
0.4059
0.402486
0.399168
0.395949
0.392834
0.389824
0.386923
0.384133
0.381458
0.3789
0.376462
0.374145
0.371953
0.369887
0.367949
0.366142
0.364467
0.362926
0.36152
0.360251
0.35912
0.358128
0.357276
0.356565
0.355995
0.355568
0.355283
0.355141
0.64487
0.644728
0.644443
0.644015
0.643445
0.642734
0.641882
0.64089
0.639758
0.638489
0.637083
0.635542
0.633867
0.632059
0.630122
0.628056
0.625863
0.623547
0.621108
0.61855
0.615875
0.613085
0.610184
0.607174
0.604058
0.60084
0.597522
0.594108
0.590601
0.587004
0.583321
0.579557
0.575714
0.571796
0.567807
0.563751
0.559632
0.555455
0.551222
0.546939
0.54261
0.538239
0.53383
0.529387
0.524916
0.52042
0.515904
0.511372
0.506829
0.502279
0.497727
0.493178
0.488634
0.484103
0.479586
0.47509
0.470619
0.466177
0.461768
0.457396
0.453067
0.448784
0.444552
0.440375
0.436256
0.4322
0.428211
0.424293
0.42045
0.416686
0.413003
0.409407
0.4059
0.402485
0.399168
0.395949
0.392833
0.389824
0.386922
0.384133
0.381458
0.3789
0.376461
0.374145
0.371952
0.369887
0.367949
0.366142
0.364467
0.362926
0.36152
0.360251
0.35912
0.358127
0.357275
0.356564
0.355995
0.355567
0.355282
0.35514
0.64487
0.644728
0.644443
0.644015
0.643446
0.642734
0.641882
0.64089
0.639759
0.638489
0.637083
0.635542
0.633867
0.63206
0.630122
0.628056
0.625864
0.623547
0.621108
0.61855
0.615875
0.613086
0.610184
0.607174
0.604059
0.60084
0.597522
0.594108
0.590601
0.587004
0.583322
0.579557
0.575714
0.571796
0.567807
0.563751
0.559632
0.555455
0.551222
0.546939
0.54261
0.538239
0.53383
0.529388
0.524916
0.52042
0.515904
0.511372
0.506829
0.502279
0.497727
0.493177
0.488634
0.484103
0.479586
0.47509
0.470619
0.466177
0.461768
0.457396
0.453067
0.448784
0.444552
0.440374
0.436256
0.4322
0.428211
0.424293
0.42045
0.416685
0.413003
0.409406
0.405899
0.402485
0.399167
0.395949
0.392833
0.389823
0.386922
0.384133
0.381458
0.3789
0.376461
0.374144
0.371952
0.369886
0.367949
0.366142
0.364467
0.362925
0.36152
0.36025
0.359119
0.358127
0.357275
0.356564
0.355994
0.355567
0.355282
0.35514
0.64487
0.644728
0.644443
0.644016
0.643446
0.642735
0.641882
0.64089
0.639759
0.63849
0.637084
0.635542
0.633867
0.63206
0.630122
0.628056
0.625864
0.623547
0.621109
0.618551
0.615875
0.613086
0.610185
0.607175
0.604059
0.60084
0.597522
0.594108
0.590601
0.587004
0.583322
0.579557
0.575714
0.571796
0.567807
0.563751
0.559632
0.555455
0.551222
0.54694
0.54261
0.538239
0.53383
0.529388
0.524916
0.52042
0.515904
0.511372
0.506829
0.502279
0.497727
0.493177
0.488634
0.484102
0.479586
0.47509
0.470619
0.466176
0.461767
0.457396
0.453067
0.448784
0.444552
0.440374
0.436256
0.4322
0.428211
0.424293
0.42045
0.416685
0.413003
0.409406
0.405899
0.402485
0.399167
0.395949
0.392833
0.389823
0.386922
0.384132
0.381457
0.378899
0.376461
0.374144
0.371952
0.369886
0.367948
0.366141
0.364466
0.362925
0.361519
0.36025
0.359119
0.358127
0.357275
0.356564
0.355994
0.355566
0.355282
0.35514
0.644871
0.644729
0.644444
0.644016
0.643446
0.642735
0.641883
0.640891
0.639759
0.63849
0.637084
0.635543
0.633868
0.63206
0.630123
0.628057
0.625864
0.623548
0.621109
0.618551
0.615876
0.613086
0.610185
0.607175
0.604059
0.600841
0.597523
0.594108
0.590601
0.587004
0.583322
0.579557
0.575714
0.571796
0.567807
0.563751
0.559633
0.555455
0.551223
0.54694
0.54261
0.538239
0.53383
0.529388
0.524916
0.52042
0.515904
0.511372
0.506829
0.502279
0.497727
0.493177
0.488634
0.484102
0.479586
0.47509
0.470619
0.466176
0.461767
0.457396
0.453067
0.448784
0.444552
0.440374
0.436255
0.4322
0.428211
0.424293
0.42045
0.416685
0.413003
0.409406
0.405899
0.402485
0.399167
0.395948
0.392833
0.389823
0.386922
0.384132
0.381457
0.378899
0.37646
0.374144
0.371952
0.369886
0.367948
0.366141
0.364466
0.362925
0.361519
0.36025
0.359119
0.358126
0.357274
0.356563
0.355994
0.355566
0.355281
0.355139
0.644871
0.644729
0.644444
0.644016
0.643447
0.642735
0.641883
0.640891
0.639759
0.63849
0.637084
0.635543
0.633868
0.632061
0.630123
0.628057
0.625864
0.623548
0.621109
0.618551
0.615876
0.613086
0.610185
0.607175
0.604059
0.600841
0.597523
0.594108
0.590601
0.587005
0.583322
0.579557
0.575714
0.571796
0.567807
0.563751
0.559633
0.555455
0.551223
0.54694
0.54261
0.538239
0.53383
0.529388
0.524916
0.52042
0.515904
0.511372
0.506829
0.502279
0.497727
0.493177
0.488634
0.484102
0.479586
0.47509
0.470619
0.466176
0.461767
0.457396
0.453067
0.448784
0.444552
0.440374
0.436255
0.4322
0.428211
0.424293
0.420449
0.416685
0.413002
0.409406
0.405899
0.402484
0.399167
0.395948
0.392832
0.389823
0.386921
0.384132
0.381457
0.378899
0.37646
0.374144
0.371951
0.369885
0.367948
0.366141
0.364466
0.362925
0.361519
0.36025
0.359118
0.358126
0.357274
0.356563
0.355993
0.355566
0.355281
0.355139
0.644871
0.644729
0.644444
0.644017
0.643447
0.642735
0.641883
0.640891
0.63976
0.63849
0.637084
0.635543
0.633868
0.632061
0.630123
0.628057
0.625865
0.623548
0.621109
0.618551
0.615876
0.613086
0.610185
0.607175
0.604059
0.600841
0.597523
0.594109
0.590601
0.587005
0.583322
0.579557
0.575714
0.571796
0.567807
0.563751
0.559633
0.555455
0.551223
0.54694
0.54261
0.538239
0.53383
0.529388
0.524916
0.52042
0.515904
0.511372
0.506829
0.502279
0.497727
0.493177
0.488634
0.484102
0.479586
0.47509
0.470619
0.466176
0.461767
0.457396
0.453067
0.448784
0.444551
0.440374
0.436255
0.432199
0.428211
0.424293
0.420449
0.416685
0.413002
0.409406
0.405899
0.402484
0.399166
0.395948
0.392832
0.389822
0.386921
0.384132
0.381457
0.378899
0.37646
0.374143
0.371951
0.369885
0.367948
0.366141
0.364466
0.362924
0.361519
0.360249
0.359118
0.358126
0.357274
0.356563
0.355993
0.355566
0.355281
0.355139
0.644871
0.644729
0.644444
0.644017
0.643447
0.642736
0.641883
0.640891
0.63976
0.638491
0.637085
0.635543
0.633868
0.632061
0.630123
0.628057
0.625865
0.623548
0.621109
0.618551
0.615876
0.613086
0.610185
0.607175
0.60406
0.600841
0.597523
0.594109
0.590601
0.587005
0.583322
0.579558
0.575714
0.571796
0.567807
0.563751
0.559633
0.555455
0.551223
0.54694
0.542611
0.538239
0.53383
0.529388
0.524916
0.52042
0.515904
0.511372
0.506829
0.502279
0.497727
0.493177
0.488634
0.484102
0.479586
0.47509
0.470619
0.466176
0.461767
0.457396
0.453067
0.448784
0.444551
0.440374
0.436255
0.432199
0.42821
0.424292
0.420449
0.416685
0.413002
0.409406
0.405898
0.402484
0.399166
0.395948
0.392832
0.389822
0.386921
0.384132
0.381456
0.378898
0.37646
0.374143
0.371951
0.369885
0.367948
0.36614
0.364465
0.362924
0.361518
0.360249
0.359118
0.358126
0.357274
0.356563
0.355993
0.355566
0.355281
0.355139
0.644871
0.644729
0.644444
0.644017
0.643447
0.642736
0.641884
0.640891
0.63976
0.638491
0.637085
0.635543
0.633868
0.632061
0.630123
0.628057
0.625865
0.623548
0.62111
0.618551
0.615876
0.613087
0.610185
0.607175
0.60406
0.600841
0.597523
0.594109
0.590602
0.587005
0.583322
0.579558
0.575714
0.571796
0.567807
0.563752
0.559633
0.555455
0.551223
0.54694
0.542611
0.538239
0.53383
0.529388
0.524916
0.52042
0.515904
0.511372
0.506829
0.502279
0.497727
0.493177
0.488634
0.484102
0.479586
0.47509
0.470618
0.466176
0.461767
0.457396
0.453066
0.448784
0.444551
0.440374
0.436255
0.432199
0.42821
0.424292
0.420449
0.416684
0.413002
0.409405
0.405898
0.402484
0.399166
0.395948
0.392832
0.389822
0.386921
0.384131
0.381456
0.378898
0.37646
0.374143
0.371951
0.369885
0.367947
0.36614
0.364465
0.362924
0.361518
0.360249
0.359118
0.358126
0.357274
0.356562
0.355993
0.355565
0.355281
0.355139
0.644872
0.64473
0.644445
0.644017
0.643447
0.642736
0.641884
0.640891
0.63976
0.638491
0.637085
0.635543
0.633868
0.632061
0.630124
0.628057
0.625865
0.623548
0.62111
0.618551
0.615876
0.613087
0.610185
0.607175
0.60406
0.600841
0.597523
0.594109
0.590602
0.587005
0.583322
0.579558
0.575714
0.571796
0.567807
0.563752
0.559633
0.555455
0.551223
0.54694
0.542611
0.538239
0.53383
0.529388
0.524916
0.52042
0.515904
0.511372
0.506829
0.502279
0.497727
0.493177
0.488634
0.484102
0.479586
0.47509
0.470618
0.466176
0.461767
0.457396
0.453066
0.448784
0.444551
0.440374
0.436255
0.432199
0.42821
0.424292
0.420449
0.416684
0.413002
0.409405
0.405898
0.402484
0.399166
0.395948
0.392832
0.389822
0.386921
0.384131
0.381456
0.378898
0.37646
0.374143
0.371951
0.369885
0.367947
0.36614
0.364465
0.362924
0.361518
0.360249
0.359118
0.358126
0.357274
0.356562
0.355993
0.355565
0.35528
0.355139
0.644872
0.64473
0.644445
0.644017
0.643447
0.642736
0.641884
0.640892
0.63976
0.638491
0.637085
0.635544
0.633868
0.632061
0.630124
0.628058
0.625865
0.623548
0.62111
0.618552
0.615876
0.613087
0.610185
0.607175
0.60406
0.600841
0.597523
0.594109
0.590602
0.587005
0.583322
0.579558
0.575714
0.571796
0.567807
0.563752
0.559633
0.555455
0.551223
0.54694
0.542611
0.538239
0.53383
0.529388
0.524916
0.52042
0.515904
0.511372
0.506829
0.502279
0.497727
0.493177
0.488634
0.484102
0.479586
0.47509
0.470618
0.466176
0.461767
0.457396
0.453066
0.448783
0.444551
0.440374
0.436255
0.432199
0.42821
0.424292
0.420449
0.416684
0.413002
0.409405
0.405898
0.402484
0.399166
0.395948
0.392832
0.389822
0.386921
0.384131
0.381456
0.378898
0.37646
0.374143
0.371951
0.369885
0.367947
0.36614
0.364465
0.362924
0.361518
0.360249
0.359118
0.358126
0.357273
0.356562
0.355993
0.355565
0.35528
0.355138
0.644872
0.64473
0.644445
0.644017
0.643447
0.642736
0.641884
0.640892
0.63976
0.638491
0.637085
0.635544
0.633868
0.632061
0.630124
0.628058
0.625865
0.623548
0.62111
0.618552
0.615876
0.613087
0.610186
0.607176
0.60406
0.600841
0.597523
0.594109
0.590602
0.587005
0.583322
0.579558
0.575714
0.571796
0.567807
0.563752
0.559633
0.555455
0.551223
0.54694
0.542611
0.538239
0.53383
0.529388
0.524916
0.52042
0.515904
0.511372
0.506829
0.502279
0.497727
0.493177
0.488634
0.484102
0.479586
0.47509
0.470618
0.466176
0.461767
0.457396
0.453066
0.448783
0.444551
0.440374
0.436255
0.432199
0.42821
0.424292
0.420449
0.416684
0.413002
0.409405
0.405898
0.402484
0.399166
0.395947
0.392832
0.389822
0.386921
0.384131
0.381456
0.378898
0.37646
0.374143
0.371951
0.369885
0.367947
0.36614
0.364465
0.362924
0.361518
0.360249
0.359118
0.358126
0.357273
0.356562
0.355993
0.355565
0.35528
0.355138
0.644872
0.64473
0.644445
0.644017
0.643447
0.642736
0.641884
0.640892
0.63976
0.638491
0.637085
0.635544
0.633868
0.632061
0.630124
0.628058
0.625865
0.623548
0.62111
0.618552
0.615876
0.613087
0.610186
0.607176
0.60406
0.600841
0.597523
0.594109
0.590602
0.587005
0.583322
0.579558
0.575714
0.571796
0.567807
0.563752
0.559633
0.555455
0.551223
0.54694
0.54261
0.538239
0.53383
0.529388
0.524916
0.52042
0.515904
0.511372
0.506829
0.502279
0.497727
0.493177
0.488634
0.484102
0.479586
0.47509
0.470618
0.466176
0.461767
0.457396
0.453066
0.448783
0.444551
0.440373
0.436255
0.432199
0.42821
0.424292
0.420449
0.416684
0.413002
0.409405
0.405898
0.402484
0.399166
0.395947
0.392832
0.389822
0.386921
0.384131
0.381456
0.378898
0.376459
0.374143
0.371951
0.369885
0.367947
0.36614
0.364465
0.362924
0.361518
0.360249
0.359118
0.358126
0.357273
0.356562
0.355993
0.355565
0.35528
0.355138
0.644872
0.64473
0.644445
0.644017
0.643447
0.642736
0.641884
0.640892
0.63976
0.638491
0.637085
0.635544
0.633868
0.632061
0.630124
0.628058
0.625865
0.623548
0.62111
0.618552
0.615876
0.613087
0.610185
0.607175
0.60406
0.600841
0.597523
0.594109
0.590602
0.587005
0.583322
0.579558
0.575714
0.571796
0.567807
0.563751
0.559633
0.555455
0.551223
0.54694
0.54261
0.538239
0.53383
0.529388
0.524916
0.52042
0.515904
0.511372
0.506829
0.502279
0.497727
0.493177
0.488634
0.484102
0.479586
0.47509
0.470618
0.466176
0.461767
0.457396
0.453066
0.448783
0.444551
0.440373
0.436255
0.432199
0.42821
0.424292
0.420449
0.416684
0.413002
0.409405
0.405898
0.402484
0.399166
0.395947
0.392832
0.389822
0.386921
0.384131
0.381456
0.378898
0.37646
0.374143
0.371951
0.369885
0.367947
0.36614
0.364465
0.362924
0.361518
0.360249
0.359118
0.358126
0.357273
0.356562
0.355993
0.355565
0.35528
0.355138
0.644872
0.64473
0.644445
0.644017
0.643447
0.642736
0.641884
0.640891
0.63976
0.638491
0.637085
0.635543
0.633868
0.632061
0.630124
0.628057
0.625865
0.623548
0.62111
0.618551
0.615876
0.613087
0.610185
0.607175
0.60406
0.600841
0.597523
0.594109
0.590602
0.587005
0.583322
0.579558
0.575714
0.571796
0.567807
0.563751
0.559633
0.555455
0.551223
0.54694
0.54261
0.538239
0.53383
0.529388
0.524916
0.52042
0.515904
0.511372
0.506829
0.502279
0.497727
0.493177
0.488634
0.484102
0.479586
0.47509
0.470618
0.466176
0.461767
0.457396
0.453066
0.448783
0.444551
0.440373
0.436255
0.432199
0.42821
0.424292
0.420449
0.416684
0.413002
0.409405
0.405898
0.402484
0.399166
0.395947
0.392832
0.389822
0.386921
0.384131
0.381456
0.378898
0.37646
0.374143
0.371951
0.369885
0.367947
0.36614
0.364465
0.362924
0.361518
0.360249
0.359118
0.358126
0.357274
0.356562
0.355993
0.355565
0.355281
0.355139
0.644872
0.644729
0.644444
0.644017
0.643447
0.642736
0.641884
0.640891
0.63976
0.638491
0.637085
0.635543
0.633868
0.632061
0.630123
0.628057
0.625865
0.623548
0.62111
0.618551
0.615876
0.613087
0.610185
0.607175
0.60406
0.600841
0.597523
0.594109
0.590601
0.587005
0.583322
0.579557
0.575714
0.571796
0.567807
0.563751
0.559633
0.555455
0.551223
0.54694
0.54261
0.538239
0.53383
0.529387
0.524916
0.52042
0.515904
0.511372
0.506829
0.502279
0.497727
0.493177
0.488634
0.484102
0.479586
0.47509
0.470618
0.466176
0.461767
0.457396
0.453066
0.448783
0.444551
0.440373
0.436255
0.432199
0.42821
0.424292
0.420449
0.416684
0.413002
0.409405
0.405898
0.402484
0.399166
0.395948
0.392832
0.389822
0.386921
0.384131
0.381456
0.378898
0.37646
0.374143
0.371951
0.369885
0.367947
0.36614
0.364465
0.362924
0.361518
0.360249
0.359118
0.358126
0.357274
0.356562
0.355993
0.355565
0.355281
0.355139
0.644871
0.644729
0.644444
0.644017
0.643447
0.642736
0.641883
0.640891
0.63976
0.638491
0.637085
0.635543
0.633868
0.632061
0.630123
0.628057
0.625865
0.623548
0.621109
0.618551
0.615876
0.613086
0.610185
0.607175
0.604059
0.600841
0.597523
0.594109
0.590601
0.587005
0.583322
0.579557
0.575714
0.571796
0.567807
0.563751
0.559632
0.555455
0.551222
0.54694
0.54261
0.538239
0.53383
0.529387
0.524916
0.52042
0.515904
0.511372
0.506829
0.502279
0.497727
0.493177
0.488634
0.484102
0.479586
0.47509
0.470618
0.466176
0.461767
0.457396
0.453066
0.448783
0.444551
0.440374
0.436255
0.432199
0.42821
0.424292
0.420449
0.416684
0.413002
0.409405
0.405898
0.402484
0.399166
0.395948
0.392832
0.389822
0.386921
0.384131
0.381456
0.378898
0.37646
0.374143
0.371951
0.369885
0.367947
0.36614
0.364465
0.362924
0.361518
0.360249
0.359118
0.358126
0.357274
0.356563
0.355993
0.355566
0.355281
0.355139
0.644871
0.644729
0.644444
0.644017
0.643447
0.642736
0.641883
0.640891
0.63976
0.63849
0.637084
0.635543
0.633868
0.632061
0.630123
0.628057
0.625865
0.623548
0.621109
0.618551
0.615876
0.613086
0.610185
0.607175
0.604059
0.600841
0.597523
0.594108
0.590601
0.587005
0.583322
0.579557
0.575714
0.571796
0.567807
0.563751
0.559632
0.555455
0.551222
0.546939
0.54261
0.538239
0.53383
0.529387
0.524916
0.52042
0.515904
0.511372
0.506829
0.502279
0.497727
0.493177
0.488634
0.484102
0.479586
0.47509
0.470618
0.466176
0.461767
0.457396
0.453066
0.448783
0.444551
0.440374
0.436255
0.432199
0.42821
0.424292
0.420449
0.416684
0.413002
0.409405
0.405898
0.402484
0.399166
0.395948
0.392832
0.389822
0.386921
0.384132
0.381457
0.378898
0.37646
0.374143
0.371951
0.369885
0.367948
0.366141
0.364466
0.362924
0.361519
0.360249
0.359118
0.358126
0.357274
0.356563
0.355993
0.355566
0.355281
0.355139
0.644871
0.644729
0.644444
0.644016
0.643447
0.642735
0.641883
0.640891
0.639759
0.63849
0.637084
0.635543
0.633868
0.632061
0.630123
0.628057
0.625864
0.623548
0.621109
0.618551
0.615876
0.613086
0.610185
0.607175
0.604059
0.600841
0.597523
0.594108
0.590601
0.587004
0.583322
0.579557
0.575714
0.571796
0.567807
0.563751
0.559632
0.555455
0.551222
0.546939
0.54261
0.538239
0.53383
0.529387
0.524916
0.52042
0.515904
0.511372
0.506829
0.502279
0.497727
0.493177
0.488634
0.484102
0.479586
0.47509
0.470618
0.466176
0.461767
0.457396
0.453066
0.448784
0.444551
0.440374
0.436255
0.432199
0.42821
0.424292
0.420449
0.416685
0.413002
0.409406
0.405898
0.402484
0.399166
0.395948
0.392832
0.389822
0.386921
0.384132
0.381457
0.378899
0.37646
0.374144
0.371951
0.369885
0.367948
0.366141
0.364466
0.362925
0.361519
0.36025
0.359118
0.358126
0.357274
0.356563
0.355993
0.355566
0.355281
0.355139
0.644871
0.644729
0.644444
0.644016
0.643446
0.642735
0.641883
0.640891
0.639759
0.63849
0.637084
0.635543
0.633868
0.63206
0.630123
0.628057
0.625864
0.623547
0.621109
0.618551
0.615875
0.613086
0.610185
0.607175
0.604059
0.60084
0.597522
0.594108
0.590601
0.587004
0.583322
0.579557
0.575714
0.571796
0.567807
0.563751
0.559632
0.555455
0.551222
0.546939
0.54261
0.538239
0.53383
0.529387
0.524916
0.52042
0.515904
0.511372
0.506829
0.502279
0.497727
0.493177
0.488634
0.484102
0.479586
0.47509
0.470618
0.466176
0.461767
0.457396
0.453066
0.448784
0.444551
0.440374
0.436255
0.432199
0.42821
0.424293
0.420449
0.416685
0.413002
0.409406
0.405899
0.402484
0.399166
0.395948
0.392832
0.389823
0.386921
0.384132
0.381457
0.378899
0.37646
0.374144
0.371951
0.369886
0.367948
0.366141
0.364466
0.362925
0.361519
0.36025
0.359119
0.358127
0.357274
0.356563
0.355994
0.355566
0.355281
0.355139
0.64487
0.644728
0.644443
0.644016
0.643446
0.642735
0.641883
0.64089
0.639759
0.63849
0.637084
0.635542
0.633867
0.63206
0.630122
0.628056
0.625864
0.623547
0.621109
0.61855
0.615875
0.613086
0.610184
0.607174
0.604059
0.60084
0.597522
0.594108
0.590601
0.587004
0.583322
0.579557
0.575713
0.571795
0.567807
0.563751
0.559632
0.555454
0.551222
0.546939
0.54261
0.538239
0.53383
0.529387
0.524916
0.52042
0.515903
0.511372
0.506828
0.502279
0.497727
0.493177
0.488634
0.484102
0.479586
0.47509
0.470618
0.466176
0.461767
0.457396
0.453067
0.448784
0.444551
0.440374
0.436255
0.432199
0.428211
0.424293
0.420449
0.416685
0.413002
0.409406
0.405899
0.402485
0.399167
0.395948
0.392833
0.389823
0.386922
0.384132
0.381457
0.378899
0.376461
0.374144
0.371952
0.369886
0.367948
0.366141
0.364466
0.362925
0.361519
0.36025
0.359119
0.358127
0.357275
0.356564
0.355994
0.355567
0.355282
0.35514
0.64487
0.644728
0.644443
0.644016
0.643446
0.642734
0.641882
0.64089
0.639759
0.638489
0.637083
0.635542
0.633867
0.63206
0.630122
0.628056
0.625864
0.623547
0.621108
0.61855
0.615875
0.613085
0.610184
0.607174
0.604058
0.60084
0.597522
0.594108
0.5906
0.587004
0.583321
0.579557
0.575713
0.571795
0.567806
0.563751
0.559632
0.555454
0.551222
0.546939
0.54261
0.538238
0.533829
0.529387
0.524916
0.52042
0.515903
0.511372
0.506828
0.502279
0.497727
0.493177
0.488634
0.484102
0.479586
0.47509
0.470618
0.466176
0.461767
0.457396
0.453067
0.448784
0.444551
0.440374
0.436255
0.4322
0.428211
0.424293
0.42045
0.416685
0.413003
0.409406
0.405899
0.402485
0.399167
0.395949
0.392833
0.389823
0.386922
0.384132
0.381457
0.378899
0.376461
0.374144
0.371952
0.369886
0.367949
0.366142
0.364467
0.362925
0.36152
0.36025
0.359119
0.358127
0.357275
0.356564
0.355994
0.355567
0.355282