/*--------------------------------*- C++ -*----------------------------------*\
  =========                 |
  \\      /  F ield         | OpenFOAM: The Open Source CFD Toolbox
   \\    /   O peration     | Website:  https://openfoam.org
    \\  /    A nd           | Version:  6
     \\/     M anipulation  |
\*---------------------------------------------------------------------------*/
FoamFile
{
    version     2.0;
    format      ascii;
    class       volScalarField;
    location    "6";
    object      T;
}
// * * * * * * * * * * * * * * * * * * * * * * * * * * * * * * * * * * * * * //

dimensions      [0 0 0 1 0 0 0];

internalField   nonuniform List<scalar> 
5000
(
0.851064
0.850728
0.850054
0.849042
0.847693
0.846008
0.843989
0.841637
0.838954
0.835942
0.832604
0.828942
0.824959
0.820658
0.816043
0.811118
0.805886
0.800353
0.794523
0.7884
0.781991
0.7753
0.768334
0.761099
0.753602
0.745848
0.737846
0.729602
0.721125
0.712423
0.703503
0.694374
0.685045
0.675526
0.665825
0.655952
0.645917
0.635731
0.625403
0.614944
0.604364
0.593676
0.582889
0.572015
0.561065
0.55005
0.538983
0.527875
0.516738
0.505582
0.494422
0.483267
0.472129
0.461021
0.449954
0.43894
0.42799
0.417116
0.406329
0.39564
0.385061
0.374602
0.364273
0.354087
0.344052
0.33418
0.324479
0.314959
0.30563
0.296502
0.287582
0.278879
0.270402
0.262158
0.254156
0.246402
0.238905
0.23167
0.224704
0.218013
0.211604
0.205481
0.199651
0.194118
0.188887
0.183961
0.179346
0.175046
0.171063
0.1674
0.164062
0.16105
0.158367
0.156015
0.153996
0.152311
0.150962
0.14995
0.149275
0.148938
0.851066
0.85073
0.850056
0.849044
0.847695
0.84601
0.843991
0.841639
0.838956
0.835944
0.832606
0.828944
0.824961
0.82066
0.816045
0.81112
0.805888
0.800355
0.794524
0.788402
0.781993
0.775302
0.768336
0.761101
0.753603
0.74585
0.737847
0.729604
0.721127
0.712424
0.703504
0.694375
0.685046
0.675527
0.665826
0.655953
0.645918
0.635732
0.625403
0.614944
0.604365
0.593676
0.582889
0.572015
0.561065
0.550051
0.538984
0.527875
0.516738
0.505582
0.494422
0.483266
0.472129
0.461021
0.449954
0.438939
0.427989
0.417115
0.406328
0.395639
0.38506
0.374601
0.364273
0.354086
0.344051
0.334178
0.324477
0.314958
0.305629
0.2965
0.28758
0.278877
0.2704
0.262157
0.254154
0.246401
0.238903
0.231668
0.224702
0.218011
0.211602
0.20548
0.199649
0.194116
0.188885
0.183959
0.179344
0.175044
0.171061
0.167398
0.16406
0.161048
0.158365
0.156013
0.153994
0.152309
0.15096
0.149948
0.149274
0.148937
0.851068
0.850732
0.850058
0.849046
0.847697
0.846012
0.843993
0.841641
0.838958
0.835946
0.832608
0.828945
0.824962
0.820661
0.816047
0.811121
0.80589
0.800356
0.794526
0.788403
0.781994
0.775303
0.768337
0.761102
0.753605
0.745851
0.737849
0.729605
0.721128
0.712425
0.703505
0.694376
0.685047
0.675528
0.665827
0.655954
0.645919
0.635732
0.625404
0.614945
0.604366
0.593677
0.58289
0.572015
0.561065
0.550051
0.538984
0.527875
0.516738
0.505582
0.494422
0.483266
0.472129
0.46102
0.449953
0.438939
0.427989
0.417114
0.406327
0.395638
0.385059
0.3746
0.364272
0.354085
0.34405
0.334177
0.324476
0.314957
0.305628
0.296499
0.287579
0.278876
0.270399
0.262155
0.254153
0.246399
0.238902
0.231666
0.2247
0.21801
0.2116
0.205478
0.199648
0.194114
0.188883
0.183958
0.179343
0.175042
0.171059
0.167397
0.164058
0.161046
0.158363
0.156011
0.153992
0.152308
0.150959
0.149947
0.149272
0.148936
0.85107
0.850734
0.85006
0.849048
0.847699
0.846014
0.843995
0.841643
0.83896
0.835948
0.832609
0.828947
0.824964
0.820663
0.816048
0.811123
0.805891
0.800358
0.794528
0.788405
0.781996
0.775305
0.768339
0.761104
0.753606
0.745852
0.73785
0.729606
0.721129
0.712426
0.703506
0.694377
0.685048
0.675528
0.665827
0.655954
0.64592
0.635733
0.625405
0.614946
0.604366
0.593677
0.58289
0.572016
0.561066
0.550051
0.538984
0.527876
0.516738
0.505582
0.494422
0.483266
0.472128
0.46102
0.449953
0.438938
0.427988
0.417114
0.406327
0.395638
0.385058
0.374599
0.364271
0.354084
0.344049
0.334176
0.324475
0.314956
0.305627
0.296498
0.287578
0.278875
0.270397
0.262154
0.254151
0.246398
0.2389
0.231665
0.224699
0.218008
0.211599
0.205476
0.199646
0.194113
0.188881
0.183956
0.179341
0.17504
0.171057
0.167395
0.164056
0.161045
0.158362
0.15601
0.153991
0.152306
0.150957
0.149945
0.149271
0.148935
0.851072
0.850736
0.850061
0.849049
0.8477
0.846016
0.843997
0.841645
0.838962
0.83595
0.832611
0.828949
0.824966
0.820665
0.81605
0.811124
0.805893
0.800359
0.794529
0.788406
0.781997
0.775306
0.76834
0.761105
0.753607
0.745853
0.737851
0.729607
0.72113
0.712427
0.703507
0.694378
0.685049
0.675529
0.665828
0.655955
0.64592
0.635734
0.625405
0.614946
0.604367
0.593678
0.58289
0.572016
0.561066
0.550051
0.538984
0.527876
0.516738
0.505582
0.494421
0.483266
0.472128
0.46102
0.449952
0.438938
0.427988
0.417113
0.406326
0.395637
0.385058
0.374598
0.36427
0.354083
0.344048
0.334175
0.324474
0.314955
0.305626
0.296497
0.287576
0.278874
0.270396
0.262153
0.25415
0.246397
0.238899
0.231664
0.224698
0.218007
0.211597
0.205475
0.199644
0.194111
0.18888
0.183954
0.179339
0.175039
0.171055
0.167393
0.164055
0.161043
0.15836
0.156008
0.153989
0.152304
0.150956
0.149944
0.149269
0.148933
0.851074
0.850738
0.850063
0.849051
0.847702
0.846017
0.843998
0.841646
0.838963
0.835951
0.832613
0.82895
0.824967
0.820666
0.816051
0.811126
0.805894
0.800361
0.79453
0.788408
0.781998
0.775307
0.768341
0.761106
0.753608
0.745855
0.737852
0.729608
0.721131
0.712428
0.703508
0.694379
0.68505
0.67553
0.665829
0.655956
0.645921
0.635734
0.625406
0.614947
0.604367
0.593678
0.582891
0.572016
0.561066
0.550051
0.538984
0.527876
0.516738
0.505582
0.494421
0.483266
0.472128
0.461019
0.449952
0.438938
0.427987
0.417113
0.406326
0.395637
0.385057
0.374598
0.364269
0.354083
0.344048
0.334175
0.324473
0.314954
0.305625
0.296496
0.287575
0.278872
0.270395
0.262151
0.254149
0.246395
0.238897
0.231662
0.224696
0.218005
0.211596
0.205473
0.199643
0.19411
0.188878
0.183953
0.179338
0.175037
0.171054
0.167392
0.164053
0.161041
0.158358
0.156007
0.153988
0.152303
0.150954
0.149942
0.149268
0.148932
0.851075
0.850739
0.850065
0.849053
0.847704
0.846019
0.844
0.841648
0.838965
0.835953
0.832614
0.828952
0.824968
0.820668
0.816053
0.811127
0.805896
0.800362
0.794532
0.788409
0.781999
0.775309
0.768343
0.761107
0.753609
0.745856
0.737853
0.729609
0.721132
0.712429
0.703509
0.69438
0.685051
0.675531
0.66583
0.655957
0.645922
0.635735
0.625406
0.614947
0.604367
0.593678
0.582891
0.572016
0.561066
0.550052
0.538984
0.527876
0.516738
0.505582
0.494421
0.483266
0.472128
0.461019
0.449952
0.438937
0.427987
0.417112
0.406325
0.395636
0.385056
0.374597
0.364269
0.354082
0.344047
0.334174
0.324473
0.314953
0.305624
0.296495
0.287574
0.278871
0.270394
0.26215
0.254148
0.246394
0.238896
0.231661
0.224695
0.218004
0.211595
0.205472
0.199642
0.194108
0.188877
0.183951
0.179337
0.175036
0.171053
0.16739
0.164052
0.16104
0.158357
0.156005
0.153986
0.152302
0.150953
0.149941
0.149267
0.148931
0.851077
0.850741
0.850066
0.849054
0.847705
0.84602
0.844001
0.841649
0.838966
0.835954
0.832615
0.828953
0.82497
0.820669
0.816054
0.811128
0.805897
0.800363
0.794533
0.78841
0.782001
0.77531
0.768344
0.761108
0.75361
0.745857
0.737854
0.72961
0.721133
0.71243
0.70351
0.69438
0.685051
0.675532
0.66583
0.655957
0.645922
0.635735
0.625407
0.614948
0.604368
0.593679
0.582891
0.572017
0.561066
0.550052
0.538984
0.527876
0.516738
0.505582
0.494421
0.483266
0.472128
0.461019
0.449952
0.438937
0.427987
0.417112
0.406325
0.395635
0.385056
0.374596
0.364268
0.354081
0.344046
0.334173
0.324472
0.314952
0.305623
0.296494
0.287573
0.27887
0.270393
0.262149
0.254147
0.246393
0.238895
0.23166
0.224694
0.218003
0.211593
0.205471
0.19964
0.194107
0.188875
0.18395
0.179335
0.175034
0.171051
0.167389
0.164051
0.161039
0.158356
0.156004
0.153985
0.1523
0.150952
0.14994
0.149266
0.148929
0.851078
0.850742
0.850067
0.849055
0.847706
0.846022
0.844003
0.84165
0.838967
0.835955
0.832617
0.828954
0.824971
0.82067
0.816055
0.81113
0.805898
0.800365
0.794534
0.788411
0.782002
0.775311
0.768345
0.761109
0.753611
0.745858
0.737855
0.729611
0.721134
0.712431
0.70351
0.694381
0.685052
0.675532
0.665831
0.655958
0.645923
0.635736
0.625407
0.614948
0.604368
0.593679
0.582892
0.572017
0.561067
0.550052
0.538984
0.527876
0.516738
0.505582
0.494421
0.483265
0.472127
0.461019
0.449951
0.438937
0.427986
0.417112
0.406324
0.395635
0.385055
0.374596
0.364267
0.35408
0.344045
0.334172
0.324471
0.314951
0.305622
0.296493
0.287572
0.278869
0.270392
0.262148
0.254146
0.246392
0.238894
0.231659
0.224693
0.218002
0.211592
0.20547
0.199639
0.194106
0.188874
0.183949
0.179334
0.175033
0.17105
0.167388
0.164049
0.161037
0.158354
0.156003
0.153984
0.152299
0.15095
0.149939
0.149264
0.148928
0.851079
0.850743
0.850069
0.849057
0.847708
0.846023
0.844004
0.841652
0.838969
0.835957
0.832618
0.828956
0.824972
0.820671
0.816056
0.811131
0.805899
0.800366
0.794535
0.788412
0.782003
0.775312
0.768346
0.76111
0.753612
0.745859
0.737856
0.729612
0.721135
0.712432
0.703511
0.694382
0.685053
0.675533
0.665832
0.655958
0.645923
0.635736
0.625408
0.614948
0.604369
0.593679
0.582892
0.572017
0.561067
0.550052
0.538985
0.527876
0.516738
0.505582
0.494421
0.483265
0.472127
0.461019
0.449951
0.438936
0.427986
0.417111
0.406324
0.395634
0.385055
0.374595
0.364267
0.35408
0.344045
0.334172
0.32447
0.31495
0.305621
0.296492
0.287572
0.278869
0.270391
0.262147
0.254145
0.246391
0.238893
0.231658
0.224692
0.218001
0.211591
0.205469
0.199638
0.194105
0.188873
0.183948
0.179333
0.175032
0.171049
0.167387
0.164048
0.161036
0.158353
0.156001
0.153982
0.152298
0.150949
0.149937
0.149263
0.148927
0.851081
0.850744
0.85007
0.849058
0.847709
0.846024
0.844005
0.841653
0.83897
0.835958
0.832619
0.828957
0.824973
0.820672
0.816057
0.811132
0.8059
0.800367
0.794536
0.788413
0.782004
0.775313
0.768347
0.761111
0.753613
0.745859
0.737857
0.729613
0.721135
0.712432
0.703512
0.694383
0.685053
0.675533
0.665832
0.655959
0.645924
0.635737
0.625408
0.614949
0.604369
0.59368
0.582892
0.572017
0.561067
0.550052
0.538985
0.527876
0.516738
0.505582
0.494421
0.483265
0.472127
0.461018
0.449951
0.438936
0.427985
0.417111
0.406323
0.395634
0.385054
0.374595
0.364266
0.354079
0.344044
0.334171
0.324469
0.31495
0.30562
0.296491
0.287571
0.278868
0.27039
0.262146
0.254144
0.24639
0.238892
0.231657
0.224691
0.218
0.21159
0.205468
0.199637
0.194104
0.188872
0.183947
0.179332
0.175031
0.171048
0.167385
0.164047
0.161035
0.158352
0.156
0.153981
0.152297
0.150948
0.149936
0.149262
0.148926
0.851082
0.850746
0.850071
0.849059
0.84771
0.846025
0.844006
0.841654
0.838971
0.835959
0.83262
0.828958
0.824974
0.820673
0.816058
0.811133
0.805901
0.800368
0.794537
0.788414
0.782005
0.775314
0.768347
0.761112
0.753614
0.74586
0.737858
0.729614
0.721136
0.712433
0.703512
0.694383
0.685054
0.675534
0.665833
0.655959
0.645924
0.635737
0.625409
0.614949
0.604369
0.59368
0.582892
0.572018
0.561067
0.550052
0.538985
0.527876
0.516738
0.505582
0.494421
0.483265
0.472127
0.461018
0.44995
0.438936
0.427985
0.41711
0.406323
0.395634
0.385054
0.374594
0.364266
0.354079
0.344043
0.33417
0.324469
0.314949
0.30562
0.296491
0.28757
0.278867
0.270389
0.262146
0.254143
0.246389
0.238891
0.231656
0.22469
0.217999
0.211589
0.205467
0.199636
0.194103
0.188871
0.183946
0.179331
0.17503
0.171047
0.167384
0.164046
0.161034
0.158351
0.155999
0.15398
0.152296
0.150947
0.149935
0.149261
0.148925
0.851083
0.850747
0.850072
0.84906
0.847711
0.846026
0.844007
0.841655
0.838972
0.83596
0.832621
0.828959
0.824975
0.820674
0.816059
0.811134
0.805902
0.800369
0.794538
0.788415
0.782005
0.775314
0.768348
0.761113
0.753615
0.745861
0.737858
0.729614
0.721137
0.712433
0.703513
0.694384
0.685054
0.675534
0.665833
0.65596
0.645925
0.635737
0.625409
0.614949
0.604369
0.59368
0.582892
0.572018
0.561067
0.550052
0.538985
0.527876
0.516738
0.505582
0.494421
0.483265
0.472127
0.461018
0.44995
0.438935
0.427985
0.41711
0.406323
0.395633
0.385053
0.374594
0.364265
0.354078
0.344043
0.33417
0.324468
0.314948
0.305619
0.29649
0.287569
0.278866
0.270389
0.262145
0.254142
0.246388
0.23889
0.231655
0.224689
0.217998
0.211588
0.205466
0.199635
0.194102
0.18887
0.183945
0.17933
0.175029
0.171046
0.167384
0.164045
0.161033
0.15835
0.155998
0.153979
0.152295
0.150946
0.149934
0.14926
0.148924
0.851084
0.850748
0.850073
0.849061
0.847712
0.846027
0.844008
0.841656
0.838973
0.835961
0.832622
0.82896
0.824976
0.820675
0.81606
0.811135
0.805903
0.800369
0.794539
0.788416
0.782006
0.775315
0.768349
0.761113
0.753615
0.745861
0.737859
0.729615
0.721137
0.712434
0.703513
0.694384
0.685055
0.675535
0.665833
0.65596
0.645925
0.635738
0.625409
0.61495
0.60437
0.59368
0.582893
0.572018
0.561067
0.550052
0.538985
0.527876
0.516738
0.505582
0.494421
0.483265
0.472127
0.461018
0.44995
0.438935
0.427985
0.41711
0.406322
0.395633
0.385053
0.374593
0.364265
0.354078
0.344042
0.334169
0.324468
0.314948
0.305619
0.296489
0.287569
0.278866
0.270388
0.262144
0.254142
0.246388
0.23889
0.231654
0.224688
0.217997
0.211588
0.205465
0.199634
0.194101
0.188869
0.183944
0.179329
0.175028
0.171045
0.167383
0.164044
0.161032
0.158349
0.155998
0.153979
0.152294
0.150945
0.149934
0.149259
0.148923
0.851085
0.850748
0.850074
0.849062
0.847713
0.846028
0.844009
0.841657
0.838974
0.835961
0.832623
0.82896
0.824977
0.820676
0.816061
0.811135
0.805904
0.80037
0.794539
0.788416
0.782007
0.775316
0.76835
0.761114
0.753616
0.745862
0.737859
0.729615
0.721138
0.712435
0.703514
0.694385
0.685055
0.675535
0.665834
0.65596
0.645925
0.635738
0.625409
0.61495
0.60437
0.59368
0.582893
0.572018
0.561067
0.550052
0.538985
0.527876
0.516738
0.505582
0.494421
0.483265
0.472126
0.461018
0.44995
0.438935
0.427984
0.41711
0.406322
0.395633
0.385053
0.374593
0.364264
0.354077
0.344042
0.334169
0.324467
0.314947
0.305618
0.296489
0.287568
0.278865
0.270387
0.262143
0.254141
0.246387
0.238889
0.231654
0.224687
0.217997
0.211587
0.205464
0.199634
0.1941
0.188869
0.183943
0.179328
0.175027
0.171044
0.167382
0.164044
0.161032
0.158349
0.155997
0.153978
0.152293
0.150945
0.149933
0.149259
0.148923
0.851085
0.850749
0.850075
0.849062
0.847714
0.846029
0.84401
0.841657
0.838974
0.835962
0.832624
0.828961
0.824978
0.820677
0.816061
0.811136
0.805904
0.800371
0.79454
0.788417
0.782007
0.775316
0.76835
0.761115
0.753617
0.745863
0.73786
0.729616
0.721138
0.712435
0.703514
0.694385
0.685056
0.675536
0.665834
0.655961
0.645925
0.635738
0.62541
0.61495
0.60437
0.593681
0.582893
0.572018
0.561067
0.550053
0.538985
0.527876
0.516738
0.505582
0.49442
0.483265
0.472126
0.461017
0.44995
0.438935
0.427984
0.417109
0.406322
0.395632
0.385052
0.374593
0.364264
0.354077
0.344042
0.334168
0.324467
0.314947
0.305618
0.296488
0.287568
0.278864
0.270387
0.262143
0.25414
0.246386
0.238888
0.231653
0.224687
0.217996
0.211586
0.205464
0.199633
0.1941
0.188868
0.183943
0.179328
0.175027
0.171044
0.167381
0.164043
0.161031
0.158348
0.155996
0.153977
0.152293
0.150944
0.149932
0.149258
0.148922
0.851086
0.85075
0.850075
0.849063
0.847714
0.846029
0.84401
0.841658
0.838975
0.835963
0.832624
0.828962
0.824978
0.820677
0.816062
0.811137
0.805905
0.800371
0.79454
0.788418
0.782008
0.775317
0.768351
0.761115
0.753617
0.745863
0.73786
0.729616
0.721139
0.712435
0.703515
0.694385
0.685056
0.675536
0.665834
0.655961
0.645926
0.635739
0.62541
0.61495
0.60437
0.593681
0.582893
0.572018
0.561068
0.550053
0.538985
0.527876
0.516738
0.505582
0.49442
0.483264
0.472126
0.461017
0.44995
0.438935
0.427984
0.417109
0.406321
0.395632
0.385052
0.374592
0.364264
0.354077
0.344041
0.334168
0.324466
0.314946
0.305617
0.296488
0.287567
0.278864
0.270386
0.262142
0.25414
0.246386
0.238888
0.231652
0.224686
0.217995
0.211586
0.205463
0.199632
0.194099
0.188867
0.183942
0.179327
0.175026
0.171043
0.167381
0.164042
0.16103
0.158347
0.155996
0.153977
0.152292
0.150943
0.149932
0.149257
0.148921
0.851087
0.85075
0.850076
0.849064
0.847715
0.84603
0.844011
0.841659
0.838975
0.835963
0.832625
0.828962
0.824979
0.820678
0.816063
0.811137
0.805905
0.800372
0.794541
0.788418
0.782008
0.775317
0.768351
0.761116
0.753617
0.745863
0.737861
0.729617
0.721139
0.712436
0.703515
0.694386
0.685056
0.675536
0.665835
0.655961
0.645926
0.635739
0.62541
0.61495
0.60437
0.593681
0.582893
0.572018
0.561068
0.550053
0.538985
0.527876
0.516738
0.505582
0.49442
0.483264
0.472126
0.461017
0.449949
0.438934
0.427984
0.417109
0.406321
0.395632
0.385052
0.374592
0.364263
0.354076
0.344041
0.334168
0.324466
0.314946
0.305617
0.296487
0.287567
0.278864
0.270386
0.262142
0.254139
0.246385
0.238887
0.231652
0.224686
0.217995
0.211585
0.205463
0.199632
0.194099
0.188867
0.183942
0.179327
0.175026
0.171043
0.16738
0.164042
0.16103
0.158347
0.155995
0.153976
0.152292
0.150943
0.149931
0.149257
0.148921
0.851087
0.850751
0.850076
0.849064
0.847715
0.84603
0.844011
0.841659
0.838976
0.835964
0.832625
0.828963
0.824979
0.820678
0.816063
0.811137
0.805906
0.800372
0.794541
0.788418
0.782009
0.775318
0.768351
0.761116
0.753618
0.745864
0.737861
0.729617
0.721139
0.712436
0.703515
0.694386
0.685057
0.675536
0.665835
0.655961
0.645926
0.635739
0.62541
0.61495
0.60437
0.593681
0.582893
0.572018
0.561068
0.550053
0.538985
0.527876
0.516738
0.505582
0.49442
0.483264
0.472126
0.461017
0.449949
0.438934
0.427984
0.417109
0.406321
0.395632
0.385052
0.374592
0.364263
0.354076
0.344041
0.334167
0.324466
0.314946
0.305616
0.296487
0.287566
0.278863
0.270386
0.262142
0.254139
0.246385
0.238887
0.231652
0.224685
0.217995
0.211585
0.205462
0.199632
0.194098
0.188867
0.183941
0.179326
0.175025
0.171042
0.16738
0.164041
0.16103
0.158347
0.155995
0.153976
0.152291
0.150943
0.149931
0.149257
0.148921
0.851087
0.850751
0.850077
0.849065
0.847716
0.846031
0.844012
0.841659
0.838976
0.835964
0.832626
0.828963
0.82498
0.820679
0.816063
0.811138
0.805906
0.800372
0.794542
0.788419
0.782009
0.775318
0.768352
0.761116
0.753618
0.745864
0.737861
0.729617
0.721139
0.712436
0.703515
0.694386
0.685057
0.675537
0.665835
0.655962
0.645926
0.635739
0.62541
0.61495
0.60437
0.593681
0.582893
0.572018
0.561068
0.550053
0.538985
0.527876
0.516738
0.505582
0.49442
0.483264
0.472126
0.461017
0.449949
0.438934
0.427983
0.417109
0.406321
0.395631
0.385051
0.374592
0.364263
0.354076
0.34404
0.334167
0.324466
0.314945
0.305616
0.296487
0.287566
0.278863
0.270385
0.262141
0.254139
0.246385
0.238887
0.231651
0.224685
0.217994
0.211585
0.205462
0.199631
0.194098
0.188866
0.183941
0.179326
0.175025
0.171042
0.167379
0.164041
0.161029
0.158346
0.155994
0.153975
0.152291
0.150942
0.14993
0.149256
0.14892
0.851088
0.850752
0.850077
0.849065
0.847716
0.846031
0.844012
0.84166
0.838977
0.835964
0.832626
0.828963
0.82498
0.820679
0.816064
0.811138
0.805906
0.800373
0.794542
0.788419
0.782009
0.775318
0.768352
0.761116
0.753618
0.745864
0.737861
0.729617
0.72114
0.712436
0.703516
0.694386
0.685057
0.675537
0.665835
0.655962
0.645926
0.635739
0.62541
0.614951
0.60437
0.593681
0.582893
0.572018
0.561068
0.550053
0.538985
0.527876
0.516737
0.505581
0.49442
0.483264
0.472126
0.461017
0.449949
0.438934
0.427983
0.417108
0.406321
0.395631
0.385051
0.374591
0.364263
0.354076
0.34404
0.334167
0.324465
0.314945
0.305616
0.296487
0.287566
0.278863
0.270385
0.262141
0.254138
0.246385
0.238886
0.231651
0.224685
0.217994
0.211584
0.205462
0.199631
0.194098
0.188866
0.183941
0.179326
0.175025
0.171042
0.167379
0.164041
0.161029
0.158346
0.155994
0.153975
0.152291
0.150942
0.14993
0.149256
0.14892
0.851088
0.850752
0.850077
0.849065
0.847716
0.846031
0.844012
0.84166
0.838977
0.835965
0.832626
0.828964
0.82498
0.820679
0.816064
0.811138
0.805906
0.800373
0.794542
0.788419
0.782009
0.775318
0.768352
0.761116
0.753618
0.745864
0.737861
0.729617
0.72114
0.712436
0.703516
0.694386
0.685057
0.675537
0.665835
0.655962
0.645926
0.635739
0.62541
0.614951
0.60437
0.593681
0.582893
0.572018
0.561068
0.550053
0.538985
0.527876
0.516737
0.505581
0.49442
0.483264
0.472126
0.461017
0.449949
0.438934
0.427983
0.417108
0.40632
0.395631
0.385051
0.374591
0.364263
0.354075
0.34404
0.334167
0.324465
0.314945
0.305616
0.296486
0.287566
0.278863
0.270385
0.262141
0.254138
0.246384
0.238886
0.231651
0.224685
0.217994
0.211584
0.205461
0.199631
0.194097
0.188866
0.18394
0.179325
0.175025
0.171041
0.167379
0.164041
0.161029
0.158346
0.155994
0.153975
0.152291
0.150942
0.14993
0.149256
0.14892
0.851088
0.850752
0.850077
0.849065
0.847716
0.846032
0.844012
0.84166
0.838977
0.835965
0.832626
0.828964
0.82498
0.820679
0.816064
0.811138
0.805907
0.800373
0.794542
0.788419
0.78201
0.775318
0.768352
0.761117
0.753618
0.745864
0.737862
0.729617
0.72114
0.712436
0.703516
0.694386
0.685057
0.675537
0.665835
0.655962
0.645926
0.635739
0.62541
0.614951
0.60437
0.593681
0.582893
0.572018
0.561068
0.550052
0.538985
0.527876
0.516737
0.505581
0.49442
0.483264
0.472126
0.461017
0.449949
0.438934
0.427983
0.417108
0.40632
0.395631
0.385051
0.374591
0.364262
0.354075
0.34404
0.334167
0.324465
0.314945
0.305616
0.296486
0.287566
0.278862
0.270385
0.262141
0.254138
0.246384
0.238886
0.231651
0.224685
0.217994
0.211584
0.205461
0.199631
0.194097
0.188866
0.18394
0.179325
0.175024
0.171041
0.167379
0.164041
0.161029
0.158346
0.155994
0.153975
0.15229
0.150942
0.14993
0.149256
0.14892
0.851088
0.850752
0.850078
0.849065
0.847716
0.846032
0.844012
0.84166
0.838977
0.835965
0.832626
0.828964
0.82498
0.820679
0.816064
0.811138
0.805907
0.800373
0.794542
0.788419
0.78201
0.775318
0.768352
0.761117
0.753618
0.745864
0.737862
0.729617
0.72114
0.712436
0.703516
0.694386
0.685057
0.675537
0.665835
0.655962
0.645926
0.635739
0.62541
0.61495
0.60437
0.593681
0.582893
0.572018
0.561067
0.550052
0.538985
0.527876
0.516737
0.505581
0.49442
0.483264
0.472125
0.461017
0.449949
0.438934
0.427983
0.417108
0.40632
0.395631
0.385051
0.374591
0.364262
0.354075
0.34404
0.334167
0.324465
0.314945
0.305616
0.296486
0.287566
0.278862
0.270385
0.262141
0.254138
0.246384
0.238886
0.231651
0.224685
0.217994
0.211584
0.205461
0.199631
0.194097
0.188866
0.18394
0.179325
0.175024
0.171041
0.167379
0.164041
0.161029
0.158346
0.155994
0.153975
0.15229
0.150942
0.14993
0.149256
0.14892
0.851088
0.850752
0.850077
0.849065
0.847716
0.846032
0.844012
0.84166
0.838977
0.835965
0.832626
0.828964
0.82498
0.820679
0.816064
0.811138
0.805907
0.800373
0.794542
0.788419
0.782009
0.775318
0.768352
0.761116
0.753618
0.745864
0.737861
0.729617
0.72114
0.712436
0.703516
0.694386
0.685057
0.675537
0.665835
0.655962
0.645926
0.635739
0.62541
0.61495
0.60437
0.593681
0.582893
0.572018
0.561067
0.550052
0.538985
0.527876
0.516737
0.505581
0.49442
0.483264
0.472125
0.461017
0.449949
0.438934
0.427983
0.417108
0.40632
0.395631
0.385051
0.374591
0.364262
0.354075
0.34404
0.334167
0.324465
0.314945
0.305616
0.296486
0.287566
0.278862
0.270385
0.262141
0.254138
0.246384
0.238886
0.231651
0.224685
0.217994
0.211584
0.205461
0.199631
0.194097
0.188866
0.18394
0.179325
0.175025
0.171041
0.167379
0.164041
0.161029
0.158346
0.155994
0.153975
0.152291
0.150942
0.14993
0.149256
0.14892
0.851088
0.850752
0.850077
0.849065
0.847716
0.846031
0.844012
0.84166
0.838977
0.835965
0.832626
0.828964
0.82498
0.820679
0.816064
0.811138
0.805906
0.800373
0.794542
0.788419
0.782009
0.775318
0.768352
0.761116
0.753618
0.745864
0.737861
0.729617
0.72114
0.712436
0.703515
0.694386
0.685057
0.675537
0.665835
0.655961
0.645926
0.635739
0.62541
0.61495
0.60437
0.593681
0.582893
0.572018
0.561067
0.550052
0.538984
0.527876
0.516737
0.505581
0.49442
0.483264
0.472125
0.461016
0.449949
0.438934
0.427983
0.417108
0.40632
0.395631
0.385051
0.374591
0.364262
0.354075
0.34404
0.334167
0.324465
0.314945
0.305616
0.296486
0.287566
0.278862
0.270385
0.262141
0.254138
0.246384
0.238886
0.231651
0.224685
0.217994
0.211584
0.205461
0.199631
0.194097
0.188866
0.183941
0.179326
0.175025
0.171042
0.167379
0.164041
0.161029
0.158346
0.155994
0.153975
0.152291
0.150942
0.14993
0.149256
0.14892
0.851088
0.850752
0.850077
0.849065
0.847716
0.846031
0.844012
0.84166
0.838977
0.835965
0.832626
0.828963
0.82498
0.820679
0.816064
0.811138
0.805906
0.800373
0.794542
0.788419
0.782009
0.775318
0.768352
0.761116
0.753618
0.745864
0.737861
0.729617
0.721139
0.712436
0.703515
0.694386
0.685057
0.675536
0.665835
0.655961
0.645926
0.635739
0.62541
0.61495
0.60437
0.593681
0.582893
0.572018
0.561067
0.550052
0.538984
0.527875
0.516737
0.505581
0.49442
0.483264
0.472125
0.461016
0.449949
0.438934
0.427983
0.417108
0.40632
0.395631
0.385051
0.374591
0.364262
0.354075
0.34404
0.334167
0.324465
0.314945
0.305616
0.296486
0.287566
0.278863
0.270385
0.262141
0.254138
0.246385
0.238886
0.231651
0.224685
0.217994
0.211584
0.205462
0.199631
0.194098
0.188866
0.183941
0.179326
0.175025
0.171042
0.167379
0.164041
0.161029
0.158346
0.155994
0.153975
0.152291
0.150942
0.149931
0.149256
0.14892
0.851088
0.850751
0.850077
0.849065
0.847716
0.846031
0.844012
0.84166
0.838976
0.835964
0.832626
0.828963
0.82498
0.820679
0.816063
0.811138
0.805906
0.800372
0.794542
0.788419
0.782009
0.775318
0.768351
0.761116
0.753618
0.745864
0.737861
0.729617
0.721139
0.712436
0.703515
0.694386
0.685056
0.675536
0.665835
0.655961
0.645926
0.635738
0.62541
0.61495
0.60437
0.59368
0.582893
0.572018
0.561067
0.550052
0.538984
0.527875
0.516737
0.505581
0.49442
0.483264
0.472125
0.461016
0.449949
0.438934
0.427983
0.417108
0.40632
0.395631
0.385051
0.374591
0.364263
0.354075
0.34404
0.334167
0.324465
0.314945
0.305616
0.296487
0.287566
0.278863
0.270385
0.262141
0.254139
0.246385
0.238887
0.231651
0.224685
0.217994
0.211585
0.205462
0.199631
0.194098
0.188866
0.183941
0.179326
0.175025
0.171042
0.16738
0.164041
0.16103
0.158347
0.155995
0.153976
0.152291
0.150943
0.149931
0.149257
0.148921
0.851087
0.850751
0.850077
0.849064
0.847715
0.846031
0.844011
0.841659
0.838976
0.835964
0.832625
0.828963
0.824979
0.820678
0.816063
0.811137
0.805906
0.800372
0.794541
0.788418
0.782008
0.775317
0.768351
0.761116
0.753617
0.745863
0.737861
0.729616
0.721139
0.712435
0.703515
0.694385
0.685056
0.675536
0.665834
0.655961
0.645925
0.635738
0.62541
0.61495
0.60437
0.59368
0.582893
0.572018
0.561067
0.550052
0.538984
0.527875
0.516737
0.505581
0.49442
0.483264
0.472125
0.461016
0.449949
0.438934
0.427983
0.417108
0.40632
0.395631
0.385051
0.374591
0.364263
0.354076
0.34404
0.334167
0.324465
0.314945
0.305616
0.296487
0.287566
0.278863
0.270385
0.262142
0.254139
0.246385
0.238887
0.231652
0.224685
0.217995
0.211585
0.205462
0.199632
0.194098
0.188867
0.183941
0.179326
0.175026
0.171042
0.16738
0.164042
0.16103
0.158347
0.155995
0.153976
0.152292
0.150943
0.149931
0.149257
0.148921
0.851087
0.850751
0.850076
0.849064
0.847715
0.84603
0.844011
0.841659
0.838976
0.835963
0.832625
0.828962
0.824979
0.820678
0.816062
0.811137
0.805905
0.800371
0.794541
0.788418
0.782008
0.775317
0.768351
0.761115
0.753617
0.745863
0.73786
0.729616
0.721138
0.712435
0.703514
0.694385
0.685056
0.675536
0.665834
0.655961
0.645925
0.635738
0.625409
0.61495
0.60437
0.59368
0.582892
0.572017
0.561067
0.550052
0.538984
0.527875
0.516737
0.505581
0.49442
0.483264
0.472125
0.461016
0.449949
0.438934
0.427983
0.417108
0.40632
0.395631
0.385051
0.374591
0.364263
0.354076
0.34404
0.334167
0.324466
0.314946
0.305616
0.296487
0.287567
0.278863
0.270386
0.262142
0.254139
0.246385
0.238887
0.231652
0.224686
0.217995
0.211585
0.205463
0.199632
0.194099
0.188867
0.183942
0.179327
0.175026
0.171043
0.167381
0.164042
0.161031
0.158348
0.155996
0.153977
0.152292
0.150944
0.149932
0.149258
0.148922
0.851086
0.85075
0.850076
0.849063
0.847714
0.84603
0.84401
0.841658
0.838975
0.835963
0.832624
0.828962
0.824978
0.820677
0.816062
0.811136
0.805905
0.800371
0.79454
0.788417
0.782008
0.775317
0.76835
0.761115
0.753616
0.745862
0.73786
0.729616
0.721138
0.712435
0.703514
0.694385
0.685055
0.675535
0.665834
0.65596
0.645925
0.635738
0.625409
0.614949
0.604369
0.59368
0.582892
0.572017
0.561067
0.550052
0.538984
0.527875
0.516737
0.505581
0.494419
0.483264
0.472125
0.461016
0.449949
0.438934
0.427983
0.417108
0.406321
0.395631
0.385051
0.374592
0.364263
0.354076
0.344041
0.334167
0.324466
0.314946
0.305617
0.296487
0.287567
0.278864
0.270386
0.262142
0.25414
0.246386
0.238888
0.231652
0.224686
0.217995
0.211586
0.205463
0.199633
0.194099
0.188868
0.183942
0.179328
0.175027
0.171044
0.167381
0.164043
0.161031
0.158348
0.155996
0.153977
0.152293
0.150944
0.149933
0.149258
0.148922
0.851086
0.850749
0.850075
0.849063
0.847714
0.846029
0.84401
0.841658
0.838974
0.835962
0.832624
0.828961
0.824978
0.820677
0.816061
0.811136
0.805904
0.80037
0.79454
0.788417
0.782007
0.775316
0.76835
0.761114
0.753616
0.745862
0.737859
0.729615
0.721137
0.712434
0.703514
0.694384
0.685055
0.675535
0.665833
0.65596
0.645925
0.635737
0.625409
0.614949
0.604369
0.59368
0.582892
0.572017
0.561066
0.550051
0.538984
0.527875
0.516737
0.505581
0.494419
0.483263
0.472125
0.461016
0.449949
0.438934
0.427983
0.417108
0.406321
0.395631
0.385051
0.374592
0.364263
0.354076
0.344041
0.334168
0.324466
0.314946
0.305617
0.296488
0.287567
0.278864
0.270387
0.262143
0.25414
0.246386
0.238888
0.231653
0.224687
0.217996
0.211587
0.205464
0.199633
0.1941
0.188868
0.183943
0.179328
0.175027
0.171044
0.167382
0.164044
0.161032
0.158349
0.155997
0.153978
0.152294
0.150945
0.149933
0.149259
0.148923
0.851085
0.850749
0.850074
0.849062
0.847713
0.846028
0.844009
0.841657
0.838974
0.835962
0.832623
0.82896
0.824977
0.820676
0.816061
0.811135
0.805903
0.80037
0.794539
0.788416
0.782006
0.775315
0.768349
0.761113
0.753615
0.745861
0.737859
0.729615
0.721137
0.712434
0.703513
0.694384
0.685054
0.675534
0.665833
0.655959
0.645924
0.635737
0.625408
0.614949
0.604369
0.593679
0.582892
0.572017
0.561066
0.550051
0.538984
0.527875
0.516737
0.505581
0.494419
0.483263
0.472125
0.461016
0.449949
0.438934
0.427983
0.417109
0.406321
0.395632
0.385052
0.374592
0.364264
0.354076
0.344041
0.334168
0.324467
0.314947
0.305617
0.296488
0.287568
0.278865
0.270387
0.262143
0.254141
0.246387
0.238889
0.231654
0.224687
0.217997
0.211587
0.205465
0.199634
0.194101
0.188869
0.183944
0.179329
0.175028
0.171045
0.167383
0.164044
0.161033
0.15835
0.155998
0.153979