/*--------------------------------*- C++ -*----------------------------------*\
  =========                 |
  \\      /  F ield         | OpenFOAM: The Open Source CFD Toolbox
   \\    /   O peration     | Website:  https://openfoam.org
    \\  /    A nd           | Version:  6
     \\/     M anipulation  |
\*---------------------------------------------------------------------------*/
FoamFile
{
    version     2.0;
    format      ascii;
    class       volScalarField;
    location    "8";
    object      T;
}
// * * * * * * * * * * * * * * * * * * * * * * * * * * * * * * * * * * * * * //

dimensions      [0 0 0 1 0 0 0];

internalField   nonuniform List<scalar> 
5000
(
0.788859
0.788577
0.788012
0.787163
0.786033
0.784621
0.78293
0.78096
0.778714
0.776194
0.773402
0.770342
0.767014
0.763424
0.759574
0.755469
0.751111
0.746505
0.741656
0.736568
0.731247
0.725696
0.719922
0.713931
0.707727
0.701317
0.694708
0.687905
0.680916
0.673746
0.666404
0.658897
0.651231
0.643414
0.635455
0.62736
0.619139
0.610798
0.602347
0.593794
0.585147
0.576414
0.567606
0.558729
0.549794
0.540809
0.531783
0.522726
0.513645
0.504551
0.495453
0.486359
0.477279
0.468221
0.459196
0.450211
0.441275
0.432399
0.42359
0.414858
0.406211
0.397658
0.389207
0.380866
0.372644
0.36455
0.356591
0.348774
0.341108
0.333601
0.326259
0.31909
0.3121
0.305298
0.298688
0.292279
0.286075
0.280083
0.274309
0.268759
0.263437
0.25835
0.253501
0.248895
0.244537
0.240432
0.236582
0.232992
0.229665
0.226604
0.223812
0.221292
0.219046
0.217077
0.215385
0.213974
0.212843
0.211994
0.211429
0.211146
0.788861
0.788579
0.788014
0.787165
0.786035
0.784623
0.782931
0.780962
0.778716
0.776196
0.773404
0.770343
0.767016
0.763426
0.759576
0.75547
0.751112
0.746507
0.741658
0.73657
0.731248
0.725697
0.719924
0.713932
0.707728
0.701318
0.694709
0.687906
0.680917
0.673747
0.666405
0.658898
0.651232
0.643415
0.635456
0.627361
0.61914
0.610799
0.602348
0.593794
0.585147
0.576415
0.567606
0.55873
0.549794
0.540809
0.531784
0.522726
0.513645
0.504551
0.495453
0.486359
0.477279
0.468221
0.459195
0.45021
0.441275
0.432399
0.42359
0.414858
0.40621
0.397657
0.389206
0.380865
0.372644
0.364549
0.35659
0.348773
0.341107
0.3336
0.326258
0.319088
0.312099
0.305296
0.298687
0.292277
0.286074
0.280082
0.274308
0.268758
0.263436
0.258348
0.253499
0.248893
0.244536
0.24043
0.23658
0.23299
0.229663
0.226602
0.22381
0.22129
0.219045
0.217075
0.215384
0.213972
0.212841
0.211993
0.211427
0.211145
0.788863
0.788581
0.788015
0.787167
0.786036
0.784624
0.782933
0.780963
0.778718
0.776197
0.773406
0.770345
0.767017
0.763427
0.759577
0.755472
0.751114
0.746508
0.741659
0.736571
0.731249
0.725699
0.719925
0.713933
0.707729
0.701319
0.69471
0.687907
0.680918
0.673748
0.666406
0.658899
0.651233
0.643416
0.635456
0.627362
0.61914
0.6108
0.602348
0.593795
0.585148
0.576415
0.567606
0.55873
0.549795
0.54081
0.531784
0.522726
0.513646
0.504551
0.495453
0.486359
0.477278
0.468221
0.459195
0.45021
0.441275
0.432398
0.423589
0.414857
0.40621
0.397656
0.389205
0.380864
0.372643
0.364548
0.356589
0.348772
0.341106
0.333599
0.326257
0.319087
0.312098
0.305295
0.298686
0.292276
0.286072
0.280081
0.274307
0.268756
0.263434
0.258347
0.253498
0.248892
0.244534
0.240429
0.236579
0.232989
0.229662
0.226601
0.223809
0.221289
0.219043
0.217074
0.215382
0.21397
0.21284
0.211991
0.211426
0.211144
0.788864
0.788582
0.788017
0.787168
0.786038
0.784626
0.782934
0.780965
0.778719
0.776199
0.773407
0.770346
0.767019
0.763429
0.759579
0.755473
0.751115
0.746509
0.74166
0.736572
0.73125
0.7257
0.719926
0.713934
0.70773
0.70132
0.694711
0.687908
0.680919
0.673749
0.666407
0.658899
0.651233
0.643417
0.635457
0.627362
0.619141
0.6108
0.602349
0.593795
0.585148
0.576415
0.567607
0.55873
0.549795
0.54081
0.531784
0.522726
0.513646
0.504551
0.495453
0.486359
0.477278
0.468221
0.459195
0.45021
0.441274
0.432398
0.423589
0.414857
0.406209
0.397656
0.389204
0.380864
0.372642
0.364547
0.356588
0.348771
0.341105
0.333598
0.326256
0.319086
0.312097
0.305294
0.298685
0.292275
0.286071
0.280079
0.274305
0.268755
0.263433
0.258345
0.253496
0.248891
0.244533
0.240427
0.236577
0.232987
0.22966
0.226599
0.223807
0.221287
0.219042
0.217072
0.215381
0.213969
0.212839
0.21199
0.211425
0.211143
0.788866
0.788584
0.788018
0.78717
0.786039
0.784627
0.782936
0.780966
0.77872
0.7762
0.773408
0.770347
0.76702
0.76343
0.75958
0.755474
0.751116
0.746511
0.741661
0.736573
0.731252
0.725701
0.719927
0.713935
0.707731
0.701321
0.694712
0.687909
0.680919
0.67375
0.666408
0.6589
0.651234
0.643417
0.635458
0.627363
0.619141
0.610801
0.602349
0.593796
0.585148
0.576416
0.567607
0.55873
0.549795
0.54081
0.531784
0.522726
0.513646
0.504551
0.495453
0.486359
0.477278
0.46822
0.459194
0.450209
0.441274
0.432397
0.423589
0.414856
0.406209
0.397655
0.389204
0.380863
0.372641
0.364547
0.356587
0.348771
0.341105
0.333597
0.326255
0.319085
0.312096
0.305293
0.298684
0.292274
0.28607
0.280078
0.274304
0.268754
0.263432
0.258344
0.253495
0.248889
0.244532
0.240426
0.236576
0.232986
0.229659
0.226598
0.223806
0.221286
0.21904
0.217071
0.215379
0.213968
0.212837
0.211989
0.211424
0.211142
0.788867
0.788585
0.78802
0.787171
0.78604
0.784629
0.782937
0.780968
0.778722
0.776202
0.77341
0.770349
0.767021
0.763431
0.759581
0.755475
0.751117
0.746512
0.741662
0.736574
0.731253
0.725702
0.719928
0.713936
0.707732
0.701322
0.694713
0.68791
0.68092
0.673751
0.666409
0.658901
0.651235
0.643418
0.635458
0.627364
0.619142
0.610801
0.60235
0.593796
0.585149
0.576416
0.567607
0.558731
0.549795
0.54081
0.531784
0.522726
0.513646
0.504551
0.495453
0.486359
0.477278
0.46822
0.459194
0.450209
0.441274
0.432397
0.423588
0.414856
0.406208
0.397655
0.389203
0.380863
0.372641
0.364546
0.356586
0.34877
0.341104
0.333596
0.326254
0.319084
0.312095
0.305292
0.298683
0.292273
0.286069
0.280077
0.274303
0.268753
0.263431
0.258343
0.253494
0.248888
0.24453
0.240425
0.236575
0.232985
0.229658
0.226597
0.223805
0.221285
0.219039
0.21707
0.215378
0.213967
0.212836
0.211988
0.211422
0.211141
0.788868
0.788586
0.788021
0.787172
0.786042
0.78463
0.782938
0.780969
0.778723
0.776203
0.773411
0.77035
0.767023
0.763432
0.759582
0.755476
0.751119
0.746513
0.741664
0.736576
0.731254
0.725703
0.719929
0.713937
0.707733
0.701323
0.694714
0.687911
0.680921
0.673752
0.666409
0.658901
0.651235
0.643419
0.635459
0.627364
0.619142
0.610802
0.60235
0.593796
0.585149
0.576416
0.567607
0.558731
0.549795
0.54081
0.531784
0.522726
0.513646
0.504551
0.495453
0.486358
0.477278
0.46822
0.459194
0.450209
0.441273
0.432397
0.423588
0.414855
0.406208
0.397654
0.389203
0.380862
0.37264
0.364545
0.356586
0.348769
0.341103
0.333595
0.326253
0.319084
0.312094
0.305291
0.298682
0.292272
0.286068
0.280076
0.274302
0.268752
0.26343
0.258342
0.253493
0.248887
0.244529
0.240424
0.236574
0.232984
0.229656
0.226595
0.223804
0.221284
0.219038
0.217068
0.215377
0.213965
0.212835
0.211987
0.211421
0.21114
0.788869
0.788588
0.788022
0.787174
0.786043
0.784631
0.78294
0.78097
0.778724
0.776204
0.773412
0.770351
0.767024
0.763433
0.759583
0.755477
0.75112
0.746514
0.741665
0.736576
0.731255
0.725704
0.71993
0.713938
0.707734
0.701324
0.694714
0.687911
0.680922
0.673752
0.66641
0.658902
0.651236
0.643419
0.635459
0.627365
0.619143
0.610802
0.60235
0.593797
0.585149
0.576417
0.567608
0.558731
0.549796
0.54081
0.531784
0.522726
0.513646
0.504551
0.495453
0.486358
0.477278
0.46822
0.459194
0.450208
0.441273
0.432396
0.423587
0.414855
0.406207
0.397654
0.389202
0.380861
0.37264
0.364545
0.356585
0.348768
0.341102
0.333594
0.326252
0.319083
0.312093
0.30529
0.298681
0.292271
0.286067
0.280075
0.274301
0.268751
0.263429
0.258341
0.253492
0.248886
0.244528
0.240422
0.236573
0.232982
0.229655
0.226594
0.223803
0.221283
0.219037
0.217067
0.215376
0.213964
0.212834
0.211986
0.21142
0.211138
0.788871
0.788589
0.788023
0.787175
0.786044
0.784632
0.782941
0.780971
0.778725
0.776205
0.773413
0.770352
0.767025
0.763434
0.759584
0.755478
0.751121
0.746515
0.741665
0.736577
0.731255
0.725705
0.719931
0.713939
0.707735
0.701325
0.694715
0.687912
0.680922
0.673753
0.666411
0.658903
0.651237
0.64342
0.63546
0.627365
0.619143
0.610802
0.602351
0.593797
0.58515
0.576417
0.567608
0.558731
0.549796
0.54081
0.531784
0.522726
0.513646
0.504551
0.495453
0.486358
0.477278
0.46822
0.459193
0.450208
0.441273
0.432396
0.423587
0.414854
0.406207
0.397653
0.389202
0.380861
0.372639
0.364544
0.356584
0.348768
0.341102
0.333594
0.326252
0.319082
0.312092
0.30529
0.29868
0.29227
0.286066
0.280074
0.2743
0.26875
0.263428
0.25834
0.253491
0.248885
0.244527
0.240421
0.236572
0.232981
0.229654
0.226593
0.223802
0.221282
0.219036
0.217066
0.215375
0.213963
0.212833
0.211985
0.211419
0.211137
0.788872
0.78859
0.788024
0.787176
0.786045
0.784633
0.782942
0.780972
0.778726
0.776206
0.773414
0.770353
0.767026
0.763435
0.759585
0.755479
0.751121
0.746516
0.741666
0.736578
0.731256
0.725706
0.719931
0.713939
0.707735
0.701325
0.694716
0.687913
0.680923
0.673753
0.666411
0.658903
0.651237
0.64342
0.63546
0.627366
0.619144
0.610803
0.602351
0.593797
0.58515
0.576417
0.567608
0.558731
0.549796
0.54081
0.531784
0.522726
0.513646
0.504551
0.495453
0.486358
0.477277
0.468219
0.459193
0.450208
0.441272
0.432396
0.423587
0.414854
0.406206
0.397653
0.389201
0.38086
0.372638
0.364544
0.356584
0.348767
0.341101
0.333593
0.326251
0.319081
0.312092
0.305289
0.298679
0.292269
0.286065
0.280074
0.274299
0.268749
0.263427
0.258339
0.25349
0.248884
0.244526
0.24042
0.236571
0.23298
0.229653
0.226592
0.223801
0.221281
0.219035
0.217065
0.215374
0.213962
0.212832
0.211984
0.211418
0.211137
0.788873
0.788591
0.788025
0.787177
0.786046
0.784634
0.782943
0.780973
0.778727
0.776207
0.773415
0.770354
0.767027
0.763436
0.759586
0.75548
0.751122
0.746516
0.741667
0.736579
0.731257
0.725706
0.719932
0.71394
0.707736
0.701326
0.694716
0.687913
0.680924
0.673754
0.666412
0.658904
0.651237
0.643421
0.635461
0.627366
0.619144
0.610803
0.602351
0.593798
0.58515
0.576417
0.567608
0.558731
0.549796
0.540811
0.531784
0.522726
0.513646
0.504551
0.495452
0.486358
0.477277
0.468219
0.459193
0.450208
0.441272
0.432395
0.423586
0.414854
0.406206
0.397652
0.389201
0.38086
0.372638
0.364543
0.356583
0.348767
0.3411
0.333593
0.32625
0.319081
0.312091
0.305288
0.298678
0.292269
0.286065
0.280073
0.274299
0.268748
0.263426
0.258338
0.253489
0.248883
0.244525
0.24042
0.23657
0.23298
0.229652
0.226591
0.2238
0.22128
0.219034
0.217064
0.215373
0.213961
0.212831
0.211983
0.211417
0.211136
0.788874
0.788592
0.788026
0.787178
0.786047
0.784635
0.782944
0.780974
0.778728
0.776208
0.773416
0.770355
0.767027
0.763437
0.759587
0.755481
0.751123
0.746517
0.741668
0.73658
0.731258
0.725707
0.719933
0.713941
0.707737
0.701327
0.694717
0.687914
0.680924
0.673755
0.666412
0.658904
0.651238
0.643421
0.635461
0.627366
0.619144
0.610803
0.602352
0.593798
0.58515
0.576418
0.567608
0.558732
0.549796
0.540811
0.531784
0.522726
0.513646
0.504551
0.495452
0.486358
0.477277
0.468219
0.459193
0.450207
0.441272
0.432395
0.423586
0.414853
0.406206
0.397652
0.3892
0.380859
0.372638
0.364543
0.356583
0.348766
0.3411
0.333592
0.32625
0.31908
0.31209
0.305287
0.298678
0.292268
0.286064
0.280072
0.274298
0.268747
0.263425
0.258337
0.253488
0.248882
0.244525
0.240419
0.236569
0.232979
0.229652
0.226591
0.223799
0.221279
0.219033
0.217064
0.215372
0.213961
0.21283
0.211982
0.211417
0.211135
0.788874
0.788593
0.788027
0.787178
0.786048
0.784636
0.782944
0.780975
0.778729
0.776209
0.773417
0.770355
0.767028
0.763438
0.759588
0.755482
0.751124
0.746518
0.741669
0.73658
0.731258
0.725708
0.719933
0.713941
0.707737
0.701327
0.694718
0.687914
0.680925
0.673755
0.666413
0.658905
0.651238
0.643421
0.635462
0.627367
0.619145
0.610804
0.602352
0.593798
0.58515
0.576418
0.567609
0.558732
0.549796
0.540811
0.531784
0.522726
0.513645
0.504551
0.495452
0.486358
0.477277
0.468219
0.459193
0.450207
0.441272
0.432395
0.423586
0.414853
0.406205
0.397652
0.3892
0.380859
0.372637
0.364542
0.356582
0.348766
0.341099
0.333591
0.326249
0.31908
0.31209
0.305287
0.298677
0.292267
0.286063
0.280071
0.274297
0.268747
0.263425
0.258337
0.253487
0.248882
0.244524
0.240418
0.236568
0.232978
0.229651
0.22659
0.223798
0.221278
0.219032
0.217063
0.215371
0.21396
0.212829
0.211981
0.211416
0.211134
0.788875
0.788593
0.788028
0.787179
0.786049
0.784637
0.782945
0.780976
0.778729
0.776209
0.773417
0.770356
0.767029
0.763438
0.759588
0.755482
0.751124
0.746518
0.741669
0.736581
0.731259
0.725708
0.719934
0.713942
0.707738
0.701328
0.694718
0.687915
0.680925
0.673755
0.666413
0.658905
0.651239
0.643422
0.635462
0.627367
0.619145
0.610804
0.602352
0.593798
0.585151
0.576418
0.567609
0.558732
0.549796
0.540811
0.531784
0.522726
0.513645
0.504551
0.495452
0.486358
0.477277
0.468219
0.459192
0.450207
0.441271
0.432395
0.423585
0.414853
0.406205
0.397651
0.3892
0.380859
0.372637
0.364542
0.356582
0.348765
0.341099
0.333591
0.326249
0.319079
0.312089
0.305286
0.298677
0.292267
0.286063
0.280071
0.274297
0.268746
0.263424
0.258336
0.253487
0.248881
0.244523
0.240417
0.236567
0.232977
0.22965
0.226589
0.223797
0.221277
0.219032
0.217062
0.215371
0.213959
0.212829
0.21198
0.211415
0.211133
0.788876
0.788594
0.788028
0.78718
0.786049
0.784637
0.782946
0.780976
0.77873
0.77621
0.773418
0.770357
0.767029
0.763439
0.759589
0.755483
0.751125
0.746519
0.74167
0.736582
0.731259
0.725709
0.719934
0.713942
0.707738
0.701328
0.694718
0.687915
0.680925
0.673756
0.666413
0.658905
0.651239
0.643422
0.635462
0.627367
0.619145
0.610804
0.602352
0.593798
0.585151
0.576418
0.567609
0.558732
0.549796
0.540811
0.531784
0.522726
0.513645
0.504551
0.495452
0.486358
0.477277
0.468219
0.459192
0.450207
0.441271
0.432394
0.423585
0.414852
0.406205
0.397651
0.389199
0.380858
0.372636
0.364541
0.356582
0.348765
0.341098
0.33359
0.326248
0.319079
0.312089
0.305286
0.298676
0.292266
0.286062
0.28007
0.274296
0.268745
0.263423
0.258335
0.253486
0.24888
0.244523
0.240417
0.236567
0.232977
0.229649
0.226589
0.223797
0.221277
0.219031
0.217061
0.21537
0.213959
0.212828
0.21198
0.211415
0.211133
0.788877
0.788595
0.788029
0.787181
0.78605
0.784638
0.782947
0.780977
0.778731
0.776211
0.773419
0.770357
0.76703
0.76344
0.75959
0.755484
0.751125
0.74652
0.74167
0.736582
0.73126
0.725709
0.719935
0.713943
0.707739
0.701329
0.694719
0.687916
0.680926
0.673756
0.666414
0.658906
0.651239
0.643422
0.635462
0.627367
0.619145
0.610804
0.602353
0.593799
0.585151
0.576418
0.567609
0.558732
0.549796
0.540811
0.531784
0.522726
0.513645
0.504551
0.495452
0.486358
0.477277
0.468219
0.459192
0.450207
0.441271
0.432394
0.423585
0.414852
0.406205
0.397651
0.389199
0.380858
0.372636
0.364541
0.356581
0.348764
0.341098
0.33359
0.326248
0.319078
0.312088
0.305285
0.298676
0.292266
0.286062
0.28007
0.274296
0.268745
0.263423
0.258335
0.253486
0.24888
0.244522
0.240416
0.236566
0.232976
0.229649
0.226588
0.223796
0.221276
0.21903
0.217061
0.21537
0.213958
0.212828
0.211979
0.211414
0.211132
0.788877
0.788595
0.78803
0.787181
0.78605
0.784639
0.782947
0.780977
0.778731
0.776211
0.773419
0.770358
0.767031
0.76344
0.75959
0.755484
0.751126
0.74652
0.741671
0.736582
0.73126
0.72571
0.719935
0.713943
0.707739
0.701329
0.694719
0.687916
0.680926
0.673756
0.666414
0.658906
0.65124
0.643423
0.635463
0.627368
0.619145
0.610804
0.602353
0.593799
0.585151
0.576418
0.567609
0.558732
0.549796
0.540811
0.531785
0.522726
0.513645
0.504551
0.495452
0.486357
0.477277
0.468218
0.459192
0.450207
0.441271
0.432394
0.423585
0.414852
0.406204
0.39765
0.389199
0.380858
0.372636
0.364541
0.356581
0.348764
0.341098
0.33359
0.326247
0.319078
0.312088
0.305285
0.298675
0.292265
0.286061
0.280069
0.274295
0.268744
0.263423
0.258334
0.253485
0.248879
0.244522
0.240416
0.236566
0.232976
0.229648
0.226587
0.223796
0.221276
0.21903
0.21706
0.215369
0.213958
0.212827
0.211979
0.211414
0.211132
0.788878
0.788596
0.78803
0.787182
0.786051
0.784639
0.782947
0.780978
0.778732
0.776211
0.773419
0.770358
0.767031
0.763441
0.75959
0.755484
0.751126
0.74652
0.741671
0.736583
0.731261
0.72571
0.719936
0.713943
0.707739
0.701329
0.694719
0.687916
0.680926
0.673757
0.666414
0.658906
0.65124
0.643423
0.635463
0.627368
0.619146
0.610805
0.602353
0.593799
0.585151
0.576418
0.567609
0.558732
0.549796
0.540811
0.531785
0.522726
0.513645
0.504551
0.495452
0.486357
0.477276
0.468218
0.459192
0.450206
0.441271
0.432394
0.423585
0.414852
0.406204
0.39765
0.389199
0.380858
0.372636
0.364541
0.356581
0.348764
0.341097
0.333589
0.326247
0.319077
0.312088
0.305285
0.298675
0.292265
0.286061
0.280069
0.274295
0.268744
0.263422
0.258334
0.253485
0.248879
0.244521
0.240415
0.236565
0.232975
0.229648
0.226587
0.223795
0.221275
0.219029
0.21706
0.215369
0.213957
0.212827
0.211978
0.211413
0.211131
0.788878
0.788596
0.78803
0.787182
0.786051
0.784639
0.782948
0.780978
0.778732
0.776212
0.77342
0.770359
0.767031
0.763441
0.759591
0.755485
0.751127
0.746521
0.741671
0.736583
0.731261
0.72571
0.719936
0.713944
0.70774
0.70133
0.69472
0.687916
0.680927
0.673757
0.666414
0.658906
0.65124
0.643423
0.635463
0.627368
0.619146
0.610805
0.602353
0.593799
0.585151
0.576418
0.567609
0.558732
0.549796
0.540811
0.531784
0.522726
0.513645
0.504551
0.495452
0.486357
0.477276
0.468218
0.459192
0.450206
0.441271
0.432394
0.423585
0.414852
0.406204
0.39765
0.389198
0.380857
0.372635
0.36454
0.35658
0.348763
0.341097
0.333589
0.326247
0.319077
0.312087
0.305284
0.298675
0.292265
0.286061
0.280069
0.274294
0.268744
0.263422
0.258334
0.253485
0.248879
0.244521
0.240415
0.236565
0.232975
0.229648
0.226587
0.223795
0.221275
0.219029
0.21706
0.215368
0.213957
0.212826
0.211978
0.211413
0.211131
0.788878
0.788596
0.788031
0.787182
0.786052
0.78464
0.782948
0.780978
0.778732
0.776212
0.77342
0.770359
0.767032
0.763441
0.759591
0.755485
0.751127
0.746521
0.741672
0.736583
0.731261
0.72571
0.719936
0.713944
0.70774
0.70133
0.69472
0.687917
0.680927
0.673757
0.666415
0.658906
0.65124
0.643423
0.635463
0.627368
0.619146
0.610805
0.602353
0.593799
0.585151
0.576418
0.567609
0.558732
0.549796
0.540811
0.531784
0.522726
0.513645
0.504551
0.495452
0.486357
0.477276
0.468218
0.459192
0.450206
0.441271
0.432394
0.423584
0.414852
0.406204
0.39765
0.389198
0.380857
0.372635
0.36454
0.35658
0.348763
0.341097
0.333589
0.326247
0.319077
0.312087
0.305284
0.298674
0.292264
0.28606
0.280068
0.274294
0.268743
0.263422
0.258333
0.253484
0.248878
0.244521
0.240415
0.236565
0.232975
0.229647
0.226586
0.223795
0.221275
0.219029
0.217059
0.215368
0.213956
0.212826
0.211978
0.211412
0.211131
0.788879
0.788597
0.788031
0.787183
0.786052
0.78464
0.782948
0.780979
0.778733
0.776212
0.77342
0.770359
0.767032
0.763441
0.759591
0.755485
0.751127
0.746521
0.741672
0.736584
0.731261
0.725711
0.719936
0.713944
0.70774
0.70133
0.69472
0.687917
0.680927
0.673757
0.666415
0.658906
0.65124
0.643423
0.635463
0.627368
0.619146
0.610805
0.602353
0.593799
0.585151
0.576418
0.567609
0.558732
0.549796
0.540811
0.531784
0.522726
0.513645
0.504551
0.495452
0.486357
0.477276
0.468218
0.459192
0.450206
0.44127
0.432394
0.423584
0.414851
0.406204
0.39765
0.389198
0.380857
0.372635
0.36454
0.35658
0.348763
0.341097
0.333589
0.326246
0.319077
0.312087
0.305284
0.298674
0.292264
0.28606
0.280068
0.274294
0.268743
0.263421
0.258333
0.253484
0.248878
0.24452
0.240414
0.236565
0.232974
0.229647
0.226586
0.223794
0.221274
0.219029
0.217059
0.215368
0.213956
0.212826
0.211978
0.211412
0.211131
0.788879
0.788597
0.788031
0.787183
0.786052
0.78464
0.782949
0.780979
0.778733
0.776213
0.773421
0.770359
0.767032
0.763442
0.759591
0.755485
0.751127
0.746521
0.741672
0.736584
0.731262
0.725711
0.719936
0.713944
0.70774
0.70133
0.69472
0.687917
0.680927
0.673757
0.666415
0.658907
0.65124
0.643423
0.635463
0.627368
0.619146
0.610805
0.602353
0.593799
0.585151
0.576418
0.567609
0.558732
0.549796
0.540811
0.531784
0.522726
0.513645
0.504551
0.495452
0.486357
0.477276
0.468218
0.459192
0.450206
0.44127
0.432393
0.423584
0.414851
0.406204
0.39765
0.389198
0.380857
0.372635
0.36454
0.35658
0.348763
0.341097
0.333589
0.326246
0.319077
0.312087
0.305284
0.298674
0.292264
0.28606
0.280068
0.274294
0.268743
0.263421
0.258333
0.253484
0.248878
0.24452
0.240414
0.236564
0.232974
0.229647
0.226586
0.223794
0.221274
0.219028
0.217059
0.215368
0.213956
0.212826
0.211977
0.211412
0.21113
0.788879
0.788597
0.788031
0.787183
0.786052
0.78464
0.782949
0.780979
0.778733
0.776213
0.773421
0.770359
0.767032
0.763442
0.759591
0.755485
0.751127
0.746521
0.741672
0.736584
0.731262
0.725711
0.719936
0.713944
0.70774
0.70133
0.69472
0.687917
0.680927
0.673757
0.666415
0.658907
0.65124
0.643423
0.635463
0.627368
0.619146
0.610805
0.602353
0.593799
0.585151
0.576418
0.567609
0.558732
0.549796
0.540811
0.531784
0.522726
0.513645
0.504551
0.495452
0.486357
0.477276
0.468218
0.459192
0.450206
0.44127
0.432393
0.423584
0.414851
0.406204
0.39765
0.389198
0.380857
0.372635
0.36454
0.35658
0.348763
0.341097
0.333589
0.326246
0.319077
0.312087
0.305284
0.298674
0.292264
0.28606
0.280068
0.274294
0.268743
0.263421
0.258333
0.253484
0.248878
0.24452
0.240414
0.236564
0.232974
0.229647
0.226586
0.223794
0.221274
0.219028
0.217059
0.215368
0.213956
0.212826
0.211977
0.211412
0.21113
0.788879
0.788597
0.788031
0.787183
0.786052
0.78464
0.782949
0.780979
0.778733
0.776213
0.773421
0.770359
0.767032
0.763442
0.759592
0.755485
0.751127
0.746521
0.741672
0.736584
0.731262
0.725711
0.719936
0.713944
0.70774
0.70133
0.69472
0.687917
0.680927
0.673757
0.666415
0.658907
0.65124
0.643423
0.635463
0.627368
0.619146
0.610805
0.602353
0.593799
0.585151
0.576418
0.567609
0.558732
0.549796
0.540811
0.531784
0.522726
0.513645
0.50455
0.495452
0.486357
0.477276
0.468218
0.459191
0.450206
0.44127
0.432393
0.423584
0.414851
0.406203
0.39765
0.389198
0.380857
0.372635
0.36454
0.35658
0.348763
0.341097
0.333589
0.326246
0.319076
0.312087
0.305284
0.298674
0.292264
0.28606
0.280068
0.274294
0.268743
0.263421
0.258333
0.253484
0.248878
0.24452
0.240414
0.236564
0.232974
0.229647
0.226586
0.223794
0.221274
0.219028
0.217059
0.215368
0.213956
0.212826
0.211977
0.211412
0.21113
0.788879
0.788597
0.788031
0.787183
0.786052
0.78464
0.782949
0.780979
0.778733
0.776213
0.773421
0.770359
0.767032
0.763442
0.759591
0.755485
0.751127
0.746521
0.741672
0.736584
0.731262
0.725711
0.719936
0.713944
0.70774
0.70133
0.69472
0.687917
0.680927
0.673757
0.666415
0.658906
0.65124
0.643423
0.635463
0.627368
0.619146
0.610805
0.602353
0.593799
0.585151
0.576418
0.567609
0.558732
0.549796
0.540811
0.531784
0.522726
0.513645
0.50455
0.495452
0.486357
0.477276
0.468218
0.459191
0.450206
0.44127
0.432393
0.423584
0.414851
0.406203
0.39765
0.389198
0.380857
0.372635
0.36454
0.35658
0.348763
0.341097
0.333589
0.326246
0.319077
0.312087
0.305284
0.298674
0.292264
0.28606
0.280068
0.274294
0.268743
0.263421
0.258333
0.253484
0.248878
0.24452
0.240414
0.236564
0.232974
0.229647
0.226586
0.223794
0.221274
0.219029
0.217059
0.215368
0.213956
0.212826
0.211977
0.211412
0.21113
0.788879
0.788597
0.788031
0.787183
0.786052
0.78464
0.782949
0.780979
0.778733
0.776212
0.77342
0.770359
0.767032
0.763441
0.759591
0.755485
0.751127
0.746521
0.741672
0.736584
0.731261
0.72571
0.719936
0.713944
0.70774
0.70133
0.69472
0.687917
0.680927
0.673757
0.666414
0.658906
0.65124
0.643423
0.635463
0.627368
0.619146
0.610805
0.602353
0.593799
0.585151
0.576418
0.567609
0.558732
0.549796
0.540811
0.531784
0.522726
0.513645
0.50455
0.495452
0.486357
0.477276
0.468218
0.459191
0.450206
0.44127
0.432393
0.423584
0.414851
0.406203
0.39765
0.389198
0.380857
0.372635
0.36454
0.35658
0.348763
0.341097
0.333589
0.326246
0.319077
0.312087
0.305284
0.298674
0.292264
0.28606
0.280068
0.274294
0.268743
0.263421
0.258333
0.253484
0.248878
0.24452
0.240414
0.236565
0.232974
0.229647
0.226586
0.223794
0.221274
0.219029
0.217059
0.215368
0.213956
0.212826
0.211978
0.211412
0.211131
0.788878
0.788597
0.788031
0.787182
0.786052
0.78464
0.782948
0.780979
0.778733
0.776212
0.77342
0.770359
0.767032
0.763441
0.759591
0.755485
0.751127
0.746521
0.741672
0.736583
0.731261
0.72571
0.719936
0.713944
0.70774
0.70133
0.69472
0.687916
0.680927
0.673757
0.666414
0.658906
0.65124
0.643423
0.635463
0.627368
0.619146
0.610804
0.602353
0.593799
0.585151
0.576418
0.567609
0.558732
0.549796
0.540811
0.531784
0.522726
0.513645
0.50455
0.495452
0.486357
0.477276
0.468218
0.459191
0.450206
0.44127
0.432393
0.423584
0.414851
0.406203
0.39765
0.389198
0.380857
0.372635
0.36454
0.35658
0.348763
0.341097
0.333589
0.326246
0.319077
0.312087
0.305284
0.298674
0.292264
0.28606
0.280068
0.274294
0.268743
0.263421
0.258333
0.253484
0.248878
0.24452
0.240415
0.236565
0.232975
0.229647
0.226586
0.223795
0.221275
0.219029
0.217059
0.215368
0.213957
0.212826
0.211978
0.211413
0.211131
0.788878
0.788596
0.788031
0.787182
0.786051
0.78464
0.782948
0.780978
0.778732
0.776212
0.77342
0.770359
0.767031
0.763441
0.759591
0.755485
0.751127
0.746521
0.741671
0.736583
0.731261
0.72571
0.719936
0.713944
0.707739
0.701329
0.694719
0.687916
0.680926
0.673757
0.666414
0.658906
0.65124
0.643423
0.635463
0.627368
0.619145
0.610804
0.602353
0.593799
0.585151
0.576418
0.567609
0.558732
0.549796
0.54081
0.531784
0.522726
0.513645
0.50455
0.495451
0.486357
0.477276
0.468218
0.459191
0.450206
0.44127
0.432393
0.423584
0.414851
0.406204
0.39765
0.389198
0.380857
0.372635
0.36454
0.35658
0.348763
0.341097
0.333589
0.326246
0.319077
0.312087
0.305284
0.298674
0.292264
0.28606
0.280068
0.274294
0.268744
0.263422
0.258334
0.253484
0.248879
0.244521
0.240415
0.236565
0.232975
0.229648
0.226587
0.223795
0.221275
0.219029
0.21706
0.215368
0.213957
0.212826
0.211978
0.211413
0.211131
0.788878
0.788596
0.78803
0.787182
0.786051
0.784639
0.782948
0.780978
0.778732
0.776212
0.77342
0.770359
0.767031
0.763441
0.759591
0.755484
0.751126
0.74652
0.741671
0.736583
0.731261
0.72571
0.719935
0.713943
0.707739
0.701329
0.694719
0.687916
0.680926
0.673756
0.666414
0.658906
0.651239
0.643422
0.635462
0.627367
0.619145
0.610804
0.602352
0.593798
0.585151
0.576418
0.567608
0.558732
0.549796
0.54081
0.531784
0.522726
0.513645
0.50455
0.495451
0.486357
0.477276
0.468218
0.459191
0.450206
0.44127
0.432393
0.423584
0.414851
0.406204
0.39765
0.389198
0.380857
0.372635
0.36454
0.35658
0.348763
0.341097
0.333589
0.326247
0.319077
0.312087
0.305284
0.298674
0.292265
0.286061
0.280069
0.274295
0.268744
0.263422
0.258334
0.253485
0.248879
0.244521
0.240415
0.236565
0.232975
0.229648
0.226587
0.223795
0.221275
0.21903
0.21706
0.215369
0.213957
0.212827
0.211979
0.211413
0.211131
0.788877
0.788596
0.78803
0.787181
0.786051
0.784639
0.782947
0.780978
0.778732
0.776211
0.773419
0.770358
0.767031
0.76344
0.75959
0.755484
0.751126
0.74652
0.741671
0.736582
0.73126
0.725709
0.719935
0.713943
0.707739
0.701329
0.694719
0.687916
0.680926
0.673756
0.666414
0.658905
0.651239
0.643422
0.635462
0.627367
0.619145
0.610804
0.602352
0.593798
0.58515
0.576418
0.567608
0.558731
0.549796
0.54081
0.531784
0.522726
0.513645
0.50455
0.495451
0.486357
0.477276
0.468218
0.459191
0.450206
0.44127
0.432393
0.423584
0.414851
0.406204
0.39765
0.389198
0.380857
0.372635
0.36454
0.35658
0.348763
0.341097
0.333589
0.326247
0.319077
0.312088
0.305284
0.298675
0.292265
0.286061
0.280069
0.274295
0.268744
0.263422
0.258334
0.253485
0.248879
0.244521
0.240416
0.236566
0.232976
0.229648
0.226587
0.223796
0.221276
0.21903
0.21706
0.215369
0.213958
0.212827
0.211979
0.211414
0.211132
0.788877
0.788595
0.78803
0.787181
0.78605
0.784638
0.782947
0.780977
0.778731
0.776211
0.773419
0.770358
0.76703
0.76344
0.75959
0.755484
0.751126
0.74652
0.74167
0.736582
0.73126
0.725709
0.719935
0.713943
0.707738
0.701328
0.694718
0.687915
0.680925
0.673756
0.666413
0.658905
0.651239
0.643422
0.635462
0.627367
0.619145
0.610804
0.602352
0.593798
0.58515
0.576417
0.567608
0.558731
0.549796
0.54081
0.531784
0.522726
0.513645
0.50455
0.495451
0.486357
0.477276
0.468218
0.459191
0.450206
0.44127
0.432393
0.423584
0.414851
0.406204
0.39765
0.389198
0.380857
0.372635
0.36454
0.356581
0.348764
0.341097
0.333589
0.326247
0.319078
0.312088
0.305285
0.298675
0.292265
0.286061
0.280069
0.274295
0.268745
0.263423
0.258335
0.253485
0.24888
0.244522
0.240416
0.236566
0.232976
0.229649
0.226588
0.223796
0.221276
0.21903
0.217061
0.21537
0.213958
0.212828
0.211979
0.211414
0.211132
0.788876
0.788595
0.788029
0.78718
0.78605
0.784638
0.782946
0.780977
0.778731
0.77621
0.773418
0.770357
0.76703
0.763439
0.759589
0.755483
0.751125
0.746519
0.74167
0.736581
0.731259
0.725709
0.719934
0.713942
0.707738
0.701328
0.694718
0.687915
0.680925
0.673755
0.666413
0.658905
0.651238
0.643421
0.635462
0.627366
0.619144
0.610803
0.602352
0.593798
0.58515
0.576417
0.567608
0.558731
0.549795
0.54081
0.531784
0.522725
0.513645
0.50455
0.495451
0.486357
0.477276
0.468218
0.459191
0.450206
0.44127
0.432394
0.423584
0.414852
0.406204
0.39765
0.389198
0.380858
0.372636
0.364541
0.356581
0.348764
0.341098
0.33359
0.326247
0.319078
0.312088
0.305285
0.298675
0.292266
0.286062
0.28007
0.274296
0.268745
0.263423
0.258335
0.253486
0.24888
0.244522
0.240417
0.236567
0.232977
0.229649
0.226589
0.223797
0.221277
0.219031
0.217062
0.21537
0.213959
0.212828
0.21198
0.211415
0.211133
0.788876
0.788594
0.788028
0.78718
0.786049
0.784637
0.782946
0.780976
0.77873
0.77621
0.773418
0.770356
0.767029
0.763439
0.759589
0.755483
0.751124
0.746519
0.741669
0.736581
0.731259
0.725708
0.719934
0.713942
0.707738
0.701327
0.694718
0.687914
0.680925
0.673755
0.666412
0.658904
0.651238
0.643421
0.635461
0.627366
0.619144
0.610803
0.602351
0.593797
0.58515
0.576417
0.567608
0.558731
0.549795
0.54081
0.531783
0.522725
0.513644
0.50455
0.495451
0.486357
0.477276
0.468218
0.459191
0.450206
0.44127
0.432394
0.423584
0.414852
0.406204
0.39765
0.389199
0.380858
0.372636
0.364541
0.356581
0.348764
0.341098
0.33359
0.326248
0.319078
0.312089
0.305286
0.298676
0.292266
0.286062
0.28007
0.274296
0.268746
0.263424
0.258336
0.253486
0.248881
0.244523
0.240417
0.236567
0.232977
0.22965
0.226589
0.223797
0.221277
0.219032
0.217062
0.215371
0.213959
0.212829
0.211981
0.211415