/*--------------------------------*- C++ -*----------------------------------*\
  =========                 |
  \\      /  F ield         | OpenFOAM: The Open Source CFD Toolbox
   \\    /   O peration     | Website:  https://openfoam.org
    \\  /    A nd           | Version:  6
     \\/     M anipulation  |
\*---------------------------------------------------------------------------*/
FoamFile
{
    version     2.0;
    format      ascii;
    class       volScalarField;
    location    "5";
    object      T;
}
// * * * * * * * * * * * * * * * * * * * * * * * * * * * * * * * * * * * * * //

dimensions      [0 0 0 1 0 0 0];

internalField   nonuniform List<scalar> 
5000
(
0.886107
0.885748
0.885028
0.883947
0.882506
0.880705
0.878545
0.876028
0.873155
0.869928
0.866347
0.862416
0.858137
0.853511
0.848543
0.843234
0.837589
0.831611
0.825304
0.818672
0.811721
0.804455
0.79688
0.789001
0.780825
0.772359
0.763609
0.754583
0.745289
0.735735
0.72593
0.715883
0.705603
0.6951
0.684385
0.673468
0.662361
0.651074
0.63962
0.628011
0.616258
0.604376
0.592376
0.580272
0.568077
0.555805
0.543471
0.531086
0.518667
0.506226
0.493779
0.481338
0.468918
0.456534
0.444199
0.431927
0.419733
0.407629
0.395629
0.383746
0.371993
0.360384
0.34893
0.337643
0.326536
0.315619
0.304904
0.294401
0.284121
0.274073
0.264268
0.254714
0.24542
0.236394
0.227644
0.219178
0.211002
0.203123
0.195548
0.188282
0.181331
0.174699
0.168392
0.162414
0.156769
0.15146
0.146492
0.141866
0.137587
0.133655
0.130075
0.126848
0.123975
0.121458
0.119298
0.117497
0.116056
0.114974
0.114254
0.113894
0.886109
0.885751
0.88503
0.883949
0.882508
0.880707
0.878548
0.876031
0.873158
0.86993
0.86635
0.862418
0.858139
0.853513
0.848545
0.843236
0.837591
0.831613
0.825306
0.818674
0.811723
0.804457
0.796881
0.789003
0.780827
0.772361
0.763611
0.754585
0.745291
0.735737
0.725932
0.715884
0.705604
0.695102
0.684386
0.67347
0.662362
0.651075
0.639621
0.628012
0.616259
0.604376
0.592376
0.580272
0.568078
0.555806
0.543471
0.531086
0.518667
0.506226
0.493779
0.481338
0.468918
0.456534
0.444199
0.431927
0.419732
0.407628
0.395628
0.383745
0.371992
0.360383
0.348929
0.337642
0.326534
0.315617
0.304902
0.294399
0.284119
0.274072
0.264266
0.254712
0.245418
0.236392
0.227642
0.219176
0.211
0.203121
0.195546
0.18828
0.181329
0.174697
0.16839
0.162412
0.156767
0.151458
0.146489
0.141864
0.137584
0.133653
0.130073
0.126845
0.123972
0.121455
0.119296
0.117495
0.116054
0.114972
0.114252
0.113893
0.886112
0.885753
0.885032
0.883951
0.88251
0.880709
0.87855
0.876033
0.87316
0.869932
0.866352
0.86242
0.858141
0.853515
0.848547
0.843238
0.837593
0.831614
0.825307
0.818676
0.811724
0.804458
0.796883
0.789004
0.780829
0.772362
0.763612
0.754586
0.745292
0.735738
0.725933
0.715885
0.705605
0.695103
0.684387
0.673471
0.662363
0.651076
0.639622
0.628012
0.61626
0.604377
0.592377
0.580273
0.568078
0.555806
0.543471
0.531087
0.518667
0.506226
0.493778
0.481337
0.468918
0.456533
0.444198
0.431926
0.419731
0.407627
0.395627
0.383744
0.371992
0.360382
0.348928
0.337641
0.326533
0.315616
0.304901
0.294398
0.284118
0.27407
0.264265
0.254711
0.245417
0.236391
0.227641
0.219174
0.210998
0.20312
0.195544
0.188278
0.181327
0.174695
0.168388
0.16241
0.156765
0.151456
0.146487
0.141862
0.137582
0.133651
0.130071
0.126843
0.12397
0.121453
0.119294
0.117493
0.116052
0.114971
0.11425
0.113891
0.886114
0.885755
0.885034
0.883953
0.882512
0.880711
0.878551
0.876034
0.873161
0.869934
0.866353
0.862422
0.858143
0.853517
0.848548
0.84324
0.837594
0.831616
0.825309
0.818677
0.811726
0.80446
0.796885
0.789006
0.78083
0.772364
0.763614
0.754588
0.745294
0.735739
0.725934
0.715887
0.705607
0.695104
0.684388
0.673471
0.662364
0.651077
0.639623
0.628013
0.61626
0.604377
0.592377
0.580273
0.568078
0.555806
0.543471
0.531087
0.518667
0.506226
0.493778
0.481337
0.468917
0.456533
0.444198
0.431926
0.419731
0.407627
0.395626
0.383743
0.371991
0.360381
0.348927
0.33764
0.326532
0.315615
0.3049
0.294397
0.284117
0.274069
0.264264
0.254709
0.245415
0.236389
0.227639
0.219173
0.210997
0.203118
0.195543
0.188277
0.181325
0.174694
0.168386
0.162408
0.156763
0.151454
0.146486
0.14186
0.137581
0.133649
0.130069
0.126842
0.123969
0.121452
0.119292
0.117491
0.11605
0.114969
0.114249
0.11389
0.886115
0.885756
0.885036
0.883955
0.882514
0.880713
0.878553
0.876036
0.873163
0.869936
0.866355
0.862424
0.858144
0.853519
0.84855
0.843241
0.837596
0.831618
0.825311
0.818679
0.811728
0.804462
0.796886
0.789007
0.780832
0.772365
0.763615
0.754589
0.745295
0.735741
0.725935
0.715888
0.705608
0.695105
0.684389
0.673472
0.662365
0.651078
0.639623
0.628014
0.616261
0.604378
0.592378
0.580273
0.568079
0.555807
0.543471
0.531087
0.518667
0.506226
0.493778
0.481337
0.468917
0.456533
0.444197
0.431925
0.41973
0.407626
0.395626
0.383743
0.37199
0.36038
0.348926
0.337639
0.326531
0.315614
0.304899
0.294396
0.284115
0.274068
0.264262
0.254708
0.245414
0.236388
0.227638
0.219171
0.210995
0.203116
0.195541
0.188275
0.181324
0.174692
0.168385
0.162407
0.156761
0.151453
0.146484
0.141858
0.137579
0.133648
0.130067
0.12684
0.123967
0.12145
0.119291
0.11749
0.116048
0.114967
0.114247
0.113888
0.886117
0.885758
0.885038
0.883957
0.882515
0.880715
0.878555
0.876038
0.873165
0.869937
0.866357
0.862426
0.858146
0.85352
0.848552
0.843243
0.837598
0.831619
0.825312
0.818681
0.811729
0.804463
0.796888
0.789009
0.780833
0.772366
0.763616
0.75459
0.745296
0.735742
0.725936
0.715889
0.705609
0.695106
0.68439
0.673473
0.662365
0.651078
0.639624
0.628014
0.616261
0.604378
0.592378
0.580274
0.568079
0.555807
0.543471
0.531087
0.518667
0.506226
0.493778
0.481337
0.468917
0.456532
0.444197
0.431925
0.41973
0.407625
0.395625
0.383742
0.371989
0.360379
0.348925
0.337638
0.32653
0.315613
0.304897
0.294394
0.284114
0.274066
0.264261
0.254707
0.245412
0.236386
0.227636
0.21917
0.210994
0.203115
0.19554
0.188273
0.181322
0.17469
0.168383
0.162405
0.15676
0.151451
0.146482
0.141857
0.137577
0.133646
0.130066
0.126838
0.123965
0.121448
0.119289
0.117488
0.116047
0.114966
0.114246
0.113887
0.886119
0.88576
0.88504
0.883958
0.882517
0.880716
0.878557
0.87604
0.873167
0.869939
0.866358
0.862427
0.858148
0.853522
0.848553
0.843245
0.837599
0.831621
0.825314
0.818682
0.811731
0.804464
0.796889
0.78901
0.780834
0.772368
0.763618
0.754591
0.745297
0.735743
0.725937
0.71589
0.70561
0.695107
0.684391
0.673474
0.662366
0.651079
0.639625
0.628015
0.616262
0.604379
0.592379
0.580274
0.568079
0.555807
0.543472
0.531087
0.518667
0.506226
0.493778
0.481337
0.468917
0.456532
0.444197
0.431924
0.419729
0.407625
0.395624
0.383741
0.371988
0.360379
0.348924
0.337637
0.326529
0.315612
0.304896
0.294393
0.284113
0.274065
0.26426
0.254706
0.245411
0.236385
0.227635
0.219168
0.210992
0.203114
0.195538
0.188272
0.181321
0.174689
0.168382
0.162403
0.156758
0.151449
0.146481
0.141855
0.137576
0.133645
0.130064
0.126837
0.123964
0.121447
0.119287
0.117487
0.116045
0.114965
0.114244
0.113886
0.88612
0.885762
0.885041
0.88396
0.882519
0.880718
0.878558
0.876041
0.873168
0.86994
0.86636
0.862429
0.858149
0.853523
0.848555
0.843246
0.837601
0.831622
0.825315
0.818683
0.811732
0.804466
0.79689
0.789011
0.780835
0.772369
0.763619
0.754593
0.745298
0.735744
0.725938
0.715891
0.70561
0.695107
0.684392
0.673475
0.662367
0.65108
0.639625
0.628015
0.616262
0.604379
0.592379
0.580274
0.568079
0.555807
0.543472
0.531087
0.518667
0.506226
0.493778
0.481336
0.468916
0.456532
0.444196
0.431924
0.419729
0.407624
0.395624
0.383741
0.371988
0.360378
0.348923
0.337636
0.326528
0.315611
0.304895
0.294392
0.284112
0.274064
0.264259
0.254704
0.24541
0.236384
0.227634
0.219167
0.210991
0.203112
0.195537
0.188271
0.181319
0.174687
0.16838
0.162402
0.156757
0.151448
0.146479
0.141854
0.137574
0.133643
0.130063
0.126835
0.123962
0.121445
0.119286
0.117485
0.116044
0.114963
0.114243
0.113884
0.886122
0.885763
0.885043
0.883962
0.88252
0.880719
0.87856
0.876043
0.873169
0.869942
0.866361
0.86243
0.85815
0.853525
0.848556
0.843247
0.837602
0.831624
0.825316
0.818685
0.811733
0.804467
0.796891
0.789013
0.780836
0.77237
0.76362
0.754594
0.745299
0.735745
0.725939
0.715892
0.705611
0.695108
0.684393
0.673475
0.662368
0.65108
0.639626
0.628016
0.616263
0.60438
0.592379
0.580275
0.56808
0.555807
0.543472
0.531087
0.518667
0.506225
0.493778
0.481336
0.468916
0.456531
0.444196
0.431924
0.419728
0.407624
0.395623
0.38374
0.371987
0.360377
0.348922
0.337635
0.326527
0.31561
0.304895
0.294391
0.284111
0.274063
0.264258
0.254703
0.245409
0.236383
0.227633
0.219166
0.21099
0.203111
0.195536
0.188269
0.181318
0.174686
0.168379
0.162401
0.156755
0.151447
0.146478
0.141852
0.137573
0.133642
0.130061
0.126834
0.123961
0.121444
0.119285
0.117484
0.116043
0.114962
0.114242
0.113883
0.886123
0.885764
0.885044
0.883963
0.882521
0.880721
0.878561
0.876044
0.873171
0.869943
0.866363
0.862431
0.858152
0.853526
0.848557
0.843249
0.837603
0.831625
0.825318
0.818686
0.811734
0.804468
0.796893
0.789014
0.780838
0.772371
0.763621
0.754595
0.7453
0.735746
0.72594
0.715892
0.705612
0.695109
0.684393
0.673476
0.662368
0.651081
0.639626
0.628016
0.616263
0.60438
0.59238
0.580275
0.56808
0.555807
0.543472
0.531087
0.518667
0.506225
0.493778
0.481336
0.468916
0.456531
0.444195
0.431923
0.419728
0.407623
0.395623
0.38374
0.371987
0.360376
0.348922
0.337635
0.326527
0.315609
0.304894
0.29439
0.28411
0.274062
0.264257
0.254702
0.245408
0.236382
0.227631
0.219165
0.210989
0.20311
0.195534
0.188268
0.181317
0.174685
0.168378
0.162399
0.156754
0.151445
0.146477
0.141851
0.137572
0.13364
0.13006
0.126833
0.12396
0.121443
0.119283
0.117483
0.116042
0.114961
0.114241
0.113882
0.886125
0.885766
0.885045
0.883964
0.882523
0.880722
0.878562
0.876045
0.873172
0.869944
0.866364
0.862433
0.858153
0.853527
0.848559
0.84325
0.837604
0.831626
0.825319
0.818687
0.811735
0.804469
0.796894
0.789015
0.780839
0.772372
0.763622
0.754595
0.745301
0.735747
0.725941
0.715893
0.705613
0.69511
0.684394
0.673477
0.662369
0.651081
0.639627
0.628017
0.616264
0.60438
0.59238
0.580275
0.56808
0.555808
0.543472
0.531087
0.518667
0.506225
0.493777
0.481336
0.468916
0.456531
0.444195
0.431923
0.419728
0.407623
0.395622
0.383739
0.371986
0.360376
0.348921
0.337634
0.326526
0.315608
0.304893
0.29439
0.284109
0.274061
0.264256
0.254701
0.245407
0.236381
0.22763
0.219164
0.210988
0.203109
0.195533
0.188267
0.181316
0.174684
0.168377
0.162398
0.156753
0.151444
0.146476
0.14185
0.13757
0.133639
0.130059
0.126831
0.123958
0.121442
0.119282
0.117482
0.11604
0.11496
0.11424
0.113881
0.886126
0.885767
0.885047
0.883965
0.882524
0.880723
0.878563
0.876046
0.873173
0.869946
0.866365
0.862434
0.858154
0.853528
0.84856
0.843251
0.837605
0.831627
0.82532
0.818688
0.811736
0.80447
0.796895
0.789016
0.780839
0.772373
0.763623
0.754596
0.745302
0.735747
0.725942
0.715894
0.705613
0.69511
0.684395
0.673477
0.662369
0.651082
0.639627
0.628017
0.616264
0.604381
0.59238
0.580275
0.56808
0.555808
0.543472
0.531087
0.518667
0.506225
0.493777
0.481336
0.468916
0.456531
0.444195
0.431923
0.419727
0.407622
0.395622
0.383739
0.371985
0.360375
0.348921
0.337633
0.326525
0.315608
0.304892
0.294389
0.284108
0.274061
0.264255
0.2547
0.245406
0.23638
0.22763
0.219163
0.210987
0.203108
0.195532
0.188266
0.181315
0.174683
0.168376
0.162397
0.156752
0.151443
0.146474
0.141849
0.137569
0.133638
0.130058
0.12683
0.123957
0.121441
0.119281
0.117481
0.116039
0.114959
0.114239
0.11388
0.886127
0.885768
0.885048
0.883966
0.882525
0.880724
0.878565
0.876048
0.873174
0.869947
0.866366
0.862435
0.858155
0.853529
0.848561
0.843252
0.837606
0.831628
0.825321
0.818689
0.811737
0.804471
0.796895
0.789016
0.78084
0.772374
0.763623
0.754597
0.745303
0.735748
0.725942
0.715895
0.705614
0.695111
0.684395
0.673478
0.66237
0.651082
0.639628
0.628017
0.616264
0.604381
0.59238
0.580276
0.56808
0.555808
0.543472
0.531087
0.518667
0.506225
0.493777
0.481336
0.468915
0.45653
0.444195
0.431922
0.419727
0.407622
0.395621
0.383738
0.371985
0.360375
0.34892
0.337633
0.326525
0.315607
0.304891
0.294388
0.284108
0.27406
0.264254
0.2547
0.245405
0.236379
0.227629
0.219162
0.210986
0.203107
0.195531
0.188265
0.181314
0.174682
0.168375
0.162396
0.156751
0.151442
0.146473
0.141848
0.137568
0.133637
0.130057
0.126829
0.123956
0.12144
0.11928
0.11748
0.116038
0.114958
0.114238
0.113879
0.886128
0.885769
0.885049
0.883967
0.882526
0.880725
0.878566
0.876048
0.873175
0.869948
0.866367
0.862436
0.858156
0.85353
0.848562
0.843253
0.837607
0.831629
0.825322
0.81869
0.811738
0.804472
0.796896
0.789017
0.780841
0.772374
0.763624
0.754598
0.745303
0.735749
0.725943
0.715895
0.705615
0.695111
0.684396
0.673478
0.66237
0.651083
0.639628
0.628018
0.616265
0.604381
0.592381
0.580276
0.56808
0.555808
0.543472
0.531087
0.518667
0.506225
0.493777
0.481336
0.468915
0.45653
0.444194
0.431922
0.419726
0.407622
0.395621
0.383738
0.371984
0.360374
0.348919
0.337632
0.326524
0.315607
0.304891
0.294388
0.284107
0.274059
0.264253
0.254699
0.245404
0.236378
0.227628
0.219161
0.210985
0.203106
0.195531
0.188264
0.181313
0.174681
0.168374
0.162395
0.15675
0.151441
0.146473
0.141847
0.137567
0.133636
0.130056
0.126828
0.123956
0.121439
0.119279
0.117479
0.116038
0.114957
0.114237
0.113878
0.886129
0.88577
0.88505
0.883968
0.882527
0.880726
0.878566
0.876049
0.873176
0.869948
0.866368
0.862437
0.858157
0.853531
0.848562
0.843254
0.837608
0.83163
0.825322
0.818691
0.811739
0.804473
0.796897
0.789018
0.780842
0.772375
0.763625
0.754598
0.745304
0.735749
0.725944
0.715896
0.705615
0.695112
0.684396
0.673479
0.66237
0.651083
0.639628
0.628018
0.616265
0.604381
0.592381
0.580276
0.56808
0.555808
0.543472
0.531087
0.518667
0.506225
0.493777
0.481335
0.468915
0.45653
0.444194
0.431922
0.419726
0.407621
0.395621
0.383737
0.371984
0.360374
0.348919
0.337632
0.326523
0.315606
0.30489
0.294387
0.284106
0.274058
0.264253
0.254698
0.245404
0.236377
0.227627
0.21916
0.210984
0.203105
0.19553
0.188263
0.181312
0.17468
0.168373
0.162395
0.156749
0.15144
0.146472
0.141846
0.137567
0.133636
0.130055
0.126828
0.123955
0.121438
0.119279
0.117478
0.116037
0.114956
0.114236
0.113877
0.88613
0.885771
0.88505
0.883969
0.882528
0.880727
0.878567
0.87605
0.873177
0.869949
0.866369
0.862437
0.858158
0.853532
0.848563
0.843254
0.837609
0.83163
0.825323
0.818691
0.81174
0.804473
0.796898
0.789019
0.780842
0.772376
0.763625
0.754599
0.745304
0.73575
0.725944
0.715896
0.705616
0.695112
0.684396
0.673479
0.662371
0.651083
0.639629
0.628018
0.616265
0.604382
0.592381
0.580276
0.568081
0.555808
0.543472
0.531087
0.518667
0.506225
0.493777
0.481335
0.468915
0.45653
0.444194
0.431921
0.419726
0.407621
0.39562
0.383737
0.371984
0.360373
0.348919
0.337631
0.326523
0.315605
0.30489
0.294386
0.284106
0.274058
0.264252
0.254698
0.245403
0.236377
0.227626
0.21916
0.210984
0.203105
0.195529
0.188263
0.181311
0.174679
0.168372
0.162394
0.156749
0.15144
0.146471
0.141846
0.137566
0.133635
0.130055
0.126827
0.123954
0.121437
0.119278
0.117477
0.116036
0.114955
0.114235
0.113876
0.88613
0.885771
0.885051
0.88397
0.882529
0.880728
0.878568
0.876051
0.873178
0.86995
0.866369
0.862438
0.858158
0.853533
0.848564
0.843255
0.837609
0.831631
0.825324
0.818692
0.81174
0.804474
0.796898
0.789019
0.780843
0.772376
0.763626
0.754599
0.745305
0.73575
0.725944
0.715897
0.705616
0.695113
0.684397
0.673479
0.662371
0.651084
0.639629
0.628018
0.616265
0.604382
0.592381
0.580276
0.568081
0.555808
0.543472
0.531087
0.518667
0.506225
0.493777
0.481335
0.468915
0.45653
0.444194
0.431921
0.419726
0.407621
0.39562
0.383737
0.371983
0.360373
0.348918
0.337631
0.326523
0.315605
0.304889
0.294386
0.284105
0.274057
0.264252
0.254697
0.245403
0.236376
0.227626
0.219159
0.210983
0.203104
0.195528
0.188262
0.181311
0.174679
0.168372
0.162393
0.156748
0.151439
0.14647
0.141845
0.137565
0.133634
0.130054
0.126826
0.123953
0.121437
0.119277
0.117477
0.116035
0.114955
0.114235
0.113876
0.886131
0.885772
0.885052
0.883971
0.882529
0.880728
0.878569
0.876052
0.873178
0.869951
0.86637
0.862439
0.858159
0.853533
0.848564
0.843256
0.83761
0.831632
0.825324
0.818692
0.811741
0.804474
0.796899
0.78902
0.780843
0.772377
0.763626
0.7546
0.745305
0.735751
0.725945
0.715897
0.705616
0.695113
0.684397
0.67348
0.662371
0.651084
0.639629
0.628019
0.616265
0.604382
0.592381
0.580276
0.568081
0.555808
0.543472
0.531087
0.518667
0.506225
0.493777
0.481335
0.468915
0.456529
0.444194
0.431921
0.419725
0.407621
0.39562
0.383736
0.371983
0.360373
0.348918
0.33763
0.326522
0.315605
0.304889
0.294386
0.284105
0.274057
0.264251
0.254697
0.245402
0.236376
0.227625
0.219159
0.210983
0.203104
0.195528
0.188262
0.18131
0.174678
0.168371
0.162393
0.156747
0.151439
0.14647
0.141844
0.137565
0.133634
0.130053
0.126826
0.123953
0.121436
0.119277
0.117476
0.116035
0.114954
0.114234
0.113875
0.886132
0.885773
0.885052
0.883971
0.88253
0.880729
0.878569
0.876052
0.873179
0.869951
0.866371
0.862439
0.85816
0.853534
0.848565
0.843256
0.837611
0.831632
0.825325
0.818693
0.811741
0.804475
0.796899
0.78902
0.780844
0.772377
0.763627
0.7546
0.745306
0.735751
0.725945
0.715897
0.705617
0.695113
0.684397
0.67348
0.662372
0.651084
0.639629
0.628019
0.616266
0.604382
0.592381
0.580276
0.568081
0.555808
0.543472
0.531087
0.518667
0.506225
0.493777
0.481335
0.468914
0.456529
0.444193
0.431921
0.419725
0.40762
0.39562
0.383736
0.371983
0.360372
0.348918
0.33763
0.326522
0.315604
0.304889
0.294385
0.284105
0.274057
0.264251
0.254696
0.245402
0.236375
0.227625
0.219158
0.210982
0.203103
0.195528
0.188261
0.18131
0.174678
0.168371
0.162392
0.156747
0.151438
0.146469
0.141844
0.137564
0.133633
0.130053
0.126825
0.123952
0.121436
0.119276
0.117476
0.116034
0.114954
0.114234
0.113875
0.886132
0.885773
0.885053
0.883972
0.88253
0.880729
0.87857
0.876053
0.873179
0.869952
0.866371
0.86244
0.85816
0.853534
0.848565
0.843256
0.837611
0.831632
0.825325
0.818693
0.811741
0.804475
0.796899
0.78902
0.780844
0.772377
0.763627
0.7546
0.745306
0.735751
0.725945
0.715897
0.705617
0.695113
0.684397
0.67348
0.662372
0.651084
0.639629
0.628019
0.616266
0.604382
0.592381
0.580276
0.568081
0.555808
0.543472
0.531087
0.518667
0.506225
0.493777
0.481335
0.468914
0.456529
0.444193
0.431921
0.419725
0.40762
0.395619
0.383736
0.371983
0.360372
0.348917
0.33763
0.326522
0.315604
0.304888
0.294385
0.284104
0.274056
0.26425
0.254696
0.245401
0.236375
0.227625
0.219158
0.210982
0.203103
0.195527
0.188261
0.181309
0.174677
0.16837
0.162392
0.156747
0.151438
0.146469
0.141844
0.137564
0.133633
0.130053
0.126825
0.123952
0.121435
0.119276
0.117475
0.116034
0.114953
0.114233
0.113874
0.886132
0.885774
0.885053
0.883972
0.882531
0.88073
0.87857
0.876053
0.87318
0.869952
0.866371
0.86244
0.85816
0.853535
0.848566
0.843257
0.837611
0.831633
0.825325
0.818693
0.811742
0.804475
0.7969
0.789021
0.780844
0.772377
0.763627
0.754601
0.745306
0.735751
0.725946
0.715898
0.705617
0.695113
0.684398
0.67348
0.662372
0.651084
0.639629
0.628019
0.616266
0.604382
0.592381
0.580276
0.568081
0.555808
0.543472
0.531087
0.518666
0.506225
0.493777
0.481335
0.468914
0.456529
0.444193
0.431921
0.419725
0.40762
0.395619
0.383736
0.371982
0.360372
0.348917
0.33763
0.326521
0.315604
0.304888
0.294385
0.284104
0.274056
0.26425
0.254696
0.245401
0.236375
0.227624
0.219158
0.210981
0.203102
0.195527
0.188261
0.181309
0.174677
0.16837
0.162392
0.156746
0.151438
0.146469
0.141843
0.137564
0.133633
0.130052
0.126825
0.123952
0.121435
0.119276
0.117475
0.116034
0.114953
0.114233
0.113874
0.886133
0.885774
0.885053
0.883972
0.882531
0.88073
0.87857
0.876053
0.87318
0.869952
0.866372
0.86244
0.858161
0.853535
0.848566
0.843257
0.837611
0.831633
0.825326
0.818694
0.811742
0.804476
0.7969
0.789021
0.780844
0.772378
0.763627
0.754601
0.745306
0.735752
0.725946
0.715898
0.705617
0.695114
0.684398
0.67348
0.662372
0.651084
0.639629
0.628019
0.616266
0.604382
0.592381
0.580276
0.568081
0.555808
0.543472
0.531087
0.518666
0.506225
0.493776
0.481335
0.468914
0.456529
0.444193
0.43192
0.419725
0.40762
0.395619
0.383735
0.371982
0.360372
0.348917
0.337629
0.326521
0.315604
0.304888
0.294384
0.284104
0.274056
0.26425
0.254695
0.245401
0.236374
0.227624
0.219157
0.210981
0.203102
0.195527
0.18826
0.181309
0.174677
0.16837
0.162391
0.156746
0.151437
0.146469
0.141843
0.137563
0.133632
0.130052
0.126825
0.123952
0.121435
0.119276
0.117475
0.116034
0.114953
0.114233
0.113874
0.886133
0.885774
0.885054
0.883972
0.882531
0.88073
0.87857
0.876053
0.87318
0.869952
0.866372
0.86244
0.858161
0.853535
0.848566
0.843257
0.837612
0.831633
0.825326
0.818694
0.811742
0.804476
0.7969
0.789021
0.780845
0.772378
0.763627
0.754601
0.745306
0.735752
0.725946
0.715898
0.705617
0.695114
0.684398
0.67348
0.662372
0.651084
0.639629
0.628019
0.616266
0.604382
0.592381
0.580276
0.568081
0.555808
0.543472
0.531087
0.518666
0.506225
0.493776
0.481335
0.468914
0.456529
0.444193
0.43192
0.419725
0.40762
0.395619
0.383735
0.371982
0.360372
0.348917
0.337629
0.326521
0.315603
0.304888
0.294384
0.284104
0.274056
0.26425
0.254695
0.245401
0.236374
0.227624
0.219157
0.210981
0.203102
0.195527
0.18826
0.181309
0.174677
0.16837
0.162391
0.156746
0.151437
0.146469
0.141843
0.137563
0.133632
0.130052
0.126824
0.123952
0.121435
0.119275
0.117475
0.116034
0.114953
0.114233
0.113874
0.886133
0.885774
0.885054
0.883973
0.882531
0.88073
0.87857
0.876053
0.87318
0.869952
0.866372
0.862441
0.858161
0.853535
0.848566
0.843257
0.837612
0.831633
0.825326
0.818694
0.811742
0.804476
0.7969
0.789021
0.780845
0.772378
0.763627
0.754601
0.745306
0.735752
0.725946
0.715898
0.705617
0.695114
0.684398
0.67348
0.662372
0.651084
0.639629
0.628019
0.616266
0.604382
0.592381
0.580276
0.568081
0.555808
0.543472
0.531087
0.518666
0.506225
0.493776
0.481335
0.468914
0.456529
0.444193
0.43192
0.419725
0.40762
0.395619
0.383735
0.371982
0.360372
0.348917
0.337629
0.326521
0.315603
0.304888
0.294384
0.284104
0.274056
0.26425
0.254695
0.245401
0.236374
0.227624
0.219157
0.210981
0.203102
0.195527
0.18826
0.181309
0.174677
0.16837
0.162391
0.156746
0.151437
0.146469
0.141843
0.137563
0.133632
0.130052
0.126824
0.123952
0.121435
0.119275
0.117475
0.116034
0.114953
0.114233
0.113874
0.886133
0.885774
0.885054
0.883973
0.882531
0.88073
0.87857
0.876053
0.87318
0.869952
0.866372
0.862441
0.858161
0.853535
0.848566
0.843257
0.837612
0.831633
0.825326
0.818694
0.811742
0.804476
0.7969
0.789021
0.780845
0.772378
0.763627
0.754601
0.745306
0.735752
0.725946
0.715898
0.705617
0.695113
0.684398
0.67348
0.662372
0.651084
0.639629
0.628019
0.616266
0.604382
0.592381
0.580276
0.568081
0.555808
0.543472
0.531087
0.518666
0.506224
0.493776
0.481334
0.468914
0.456529
0.444193
0.43192
0.419725
0.40762
0.395619
0.383735
0.371982
0.360372
0.348917
0.337629
0.326521
0.315603
0.304888
0.294384
0.284104
0.274056
0.26425
0.254695
0.245401
0.236374
0.227624
0.219157
0.210981
0.203102
0.195527
0.18826
0.181309
0.174677
0.16837
0.162391
0.156746
0.151437
0.146469
0.141843
0.137563
0.133632
0.130052
0.126825
0.123952
0.121435
0.119276
0.117475
0.116034
0.114953
0.114233
0.113874
0.886133
0.885774
0.885054
0.883972
0.882531
0.88073
0.87857
0.876053
0.87318
0.869952
0.866372
0.86244
0.858161
0.853535
0.848566
0.843257
0.837611
0.831633
0.825326
0.818694
0.811742
0.804475
0.7969
0.789021
0.780844
0.772378
0.763627
0.754601
0.745306
0.735751
0.725946
0.715897
0.705617
0.695113
0.684397
0.67348
0.662372
0.651084
0.639629
0.628019
0.616265
0.604382
0.592381
0.580276
0.56808
0.555808
0.543472
0.531087
0.518666
0.506224
0.493776
0.481334
0.468914
0.456529
0.444193
0.43192
0.419725
0.40762
0.395619
0.383735
0.371982
0.360372
0.348917
0.337629
0.326521
0.315603
0.304888
0.294384
0.284104
0.274056
0.26425
0.254695
0.245401
0.236374
0.227624
0.219157
0.210981
0.203102
0.195527
0.18826
0.181309
0.174677
0.16837
0.162392
0.156746
0.151437
0.146469
0.141843
0.137564
0.133633
0.130052
0.126825
0.123952
0.121435
0.119276
0.117475
0.116034
0.114953
0.114233
0.113874
0.886133
0.885774
0.885053
0.883972
0.882531
0.88073
0.87857
0.876053
0.87318
0.869952
0.866372
0.86244
0.85816
0.853535
0.848566
0.843257
0.837611
0.831633
0.825325
0.818693
0.811742
0.804475
0.7969
0.78902
0.780844
0.772377
0.763627
0.7546
0.745306
0.735751
0.725945
0.715897
0.705617
0.695113
0.684397
0.67348
0.662371
0.651084
0.639629
0.628019
0.616265
0.604382
0.592381
0.580276
0.56808
0.555808
0.543472
0.531087
0.518666
0.506224
0.493776
0.481334
0.468914
0.456529
0.444193
0.43192
0.419725
0.40762
0.395619
0.383735
0.371982
0.360372
0.348917
0.337629
0.326521
0.315604
0.304888
0.294384
0.284104
0.274056
0.26425
0.254695
0.245401
0.236375
0.227624
0.219158
0.210981
0.203102
0.195527
0.188261
0.181309
0.174677
0.16837
0.162392
0.156746
0.151438
0.146469
0.141843
0.137564
0.133633
0.130053
0.126825
0.123952
0.121435
0.119276
0.117475
0.116034
0.114953
0.114233
0.113875
0.886132
0.885773
0.885053
0.883972
0.88253
0.880729
0.87857
0.876053
0.87318
0.869952
0.866371
0.86244
0.85816
0.853534
0.848565
0.843257
0.837611
0.831632
0.825325
0.818693
0.811741
0.804475
0.796899
0.78902
0.780844
0.772377
0.763627
0.7546
0.745306
0.735751
0.725945
0.715897
0.705616
0.695113
0.684397
0.673479
0.662371
0.651084
0.639629
0.628018
0.616265
0.604382
0.592381
0.580276
0.56808
0.555808
0.543472
0.531086
0.518666
0.506224
0.493776
0.481334
0.468914
0.456529
0.444193
0.43192
0.419725
0.40762
0.395619
0.383735
0.371982
0.360372
0.348917
0.337629
0.326521
0.315604
0.304888
0.294385
0.284104
0.274056
0.26425
0.254696
0.245401
0.236375
0.227625
0.219158
0.210982
0.203103
0.195527
0.188261
0.181309
0.174678
0.16837
0.162392
0.156747
0.151438
0.146469
0.141844
0.137564
0.133633
0.130053
0.126825
0.123953
0.121436
0.119276
0.117476
0.116035
0.114954
0.114234
0.113875
0.886132
0.885773
0.885053
0.883972
0.88253
0.880729
0.878569
0.876052
0.873179
0.869951
0.866371
0.86244
0.85816
0.853534
0.848565
0.843256
0.837611
0.831632
0.825325
0.818693
0.811741
0.804475
0.796899
0.78902
0.780843
0.772377
0.763626
0.7546
0.745305
0.735751
0.725945
0.715897
0.705616
0.695113
0.684397
0.673479
0.662371
0.651083
0.639628
0.628018
0.616265
0.604381
0.59238
0.580276
0.56808
0.555807
0.543472
0.531086
0.518666
0.506224
0.493776
0.481334
0.468914
0.456529
0.444193
0.43192
0.419725
0.40762
0.395619
0.383735
0.371982
0.360372
0.348917
0.33763
0.326521
0.315604
0.304888
0.294385
0.284104
0.274056
0.26425
0.254696
0.245401
0.236375
0.227625
0.219158
0.210982
0.203103
0.195528
0.188261
0.18131
0.174678
0.168371
0.162393
0.156747
0.151438
0.14647
0.141844
0.137565
0.133634
0.130053
0.126826
0.123953
0.121436
0.119277
0.117476
0.116035
0.114954
0.114234
0.113875
0.886132
0.885773
0.885052
0.883971
0.88253
0.880729
0.878569
0.876052
0.873179
0.869951
0.86637
0.862439
0.858159
0.853533
0.848565
0.843256
0.83761
0.831632
0.825324
0.818692
0.811741
0.804474
0.796898
0.789019
0.780843
0.772376
0.763626
0.754599
0.745305
0.73575
0.725944
0.715896
0.705616
0.695112
0.684396
0.673479
0.662371
0.651083
0.639628
0.628018
0.616265
0.604381
0.59238
0.580275
0.56808
0.555807
0.543471
0.531086
0.518666
0.506224
0.493776
0.481334
0.468914
0.456529
0.444193
0.43192
0.419725
0.40762
0.395619
0.383736
0.371982
0.360372
0.348917
0.33763
0.326522
0.315604
0.304888
0.294385
0.284104
0.274057
0.264251
0.254696
0.245402
0.236376
0.227625
0.219159
0.210982
0.203104
0.195528
0.188262
0.18131
0.174678
0.168371
0.162393
0.156748
0.151439
0.14647
0.141845
0.137565
0.133634
0.130054
0.126826
0.123954
0.121437
0.119277
0.117477
0.116036
0.114955
0.114235
0.113876
0.886131
0.885772
0.885052
0.883971
0.882529
0.880728
0.878568
0.876051
0.873178
0.86995
0.86637
0.862438
0.858159
0.853533
0.848564
0.843255
0.83761
0.831631
0.825324
0.818692
0.81174
0.804474
0.796898
0.789019
0.780843
0.772376
0.763625
0.754599
0.745304
0.73575
0.725944
0.715896
0.705615
0.695112
0.684396
0.673478
0.66237
0.651083
0.639628
0.628018
0.616264
0.604381
0.59238
0.580275
0.56808
0.555807
0.543471
0.531086
0.518666
0.506224
0.493776
0.481334
0.468914
0.456529
0.444193
0.43192
0.419725
0.40762
0.395619
0.383736
0.371983
0.360372
0.348917
0.33763
0.326522
0.315604
0.304889
0.294385
0.284105
0.274057
0.264251
0.254697
0.245402
0.236376
0.227626
0.219159
0.210983
0.203104
0.195529
0.188262
0.181311
0.174679
0.168372
0.162394
0.156748
0.15144
0.146471
0.141845
0.137566
0.133635
0.130055
0.126827
0.123954
0.121437
0.119278
0.117477
0.116036
0.114955
0.114235
0.113877
0.88613
0.885771
0.885051
0.88397
0.882528
0.880727
0.878568
0.876051
0.873177
0.86995
0.866369
0.862438
0.858158
0.853532
0.848563
0.843254
0.837609
0.83163
0.825323
0.818691
0.811739
0.804473
0.796897
0.789018
0.780842
0.772375
0.763625
0.754598
0.745304
0.735749
0.725943
0.715895
0.705615
0.695111
0.684396
0.673478
0.66237
0.651082
0.639627
0.628017
0.616264
0.60438
0.59238
0.580275
0.568079
0.555807
0.543471
0.531086
0.518666
0.506224
0.493776
0.481334
0.468914
0.456529
0.444193
0.43192
0.419725
0.40762
0.395619
0.383736
0.371983
0.360373
0.348918
0.33763
0.326522
0.315605
0.304889
0.294386
0.284105
0.274057
0.264252
0.254697
0.245403
0.236376
0.227626
0.21916
0.210984
0.203105
0.195529
0.188263
0.181311
0.17468
0.168373
0.162394
0.156749
0.15144
0.146472
0.141846
0.137567
0.133636
0.130055
0.126828
0.123955
0.121438
0.119279
0.117478
0.116037
0.114956
0.114236
0.113877
0.88613
0.885771
0.88505
0.883969
0.882528
0.880727
0.878567
0.87605
0.873177
0.869949
0.866368
0.862437
0.858157
0.853531
0.848563
0.843254
0.837608
0.83163
0.825322
0.81869
0.811739
0.804472
0.796897
0.789018
0.780841
0.772374
0.763624
0.754598
0.745303
0.735749
0.725943
0.715895
0.705614
0.695111
0.684395
0.673478
0.662369
0.651082
0.639627
0.628017
0.616264
0.60438
0.592379
0.580275
0.568079
0.555807
0.543471
0.531086
0.518665
0.506224
0.493776
0.481334
0.468914
0.456529
0.444193
0.43192
0.419725
0.40762
0.39562
0.383736
0.371983
0.360373
0.348918
0.337631
0.326523
0.315605
0.304889
0.294386
0.284106
0.274058
0.264252
0.254698
0.245403
0.236377
0.227627
0.21916
0.210984
0.203105
0.19553
0.188264
0.181312
0.17468
0.168373
0.162395
0.15675
0.151441
0.146472
0.141847
0.137567
0.133636
0.130056
0.126829
0.123956
0.121439
0.11928
0.117479
0.116038