/*--------------------------------*- C++ -*----------------------------------*\
  =========                 |
  \\      /  F ield         | OpenFOAM: The Open Source CFD Toolbox
   \\    /   O peration     | Website:  https://openfoam.org
    \\  /    A nd           | Version:  6
     \\/     M anipulation  |
\*---------------------------------------------------------------------------*/
FoamFile
{
    version     2.0;
    format      ascii;
    class       volScalarField;
    location    "1";
    object      gradTy;
}
// * * * * * * * * * * * * * * * * * * * * * * * * * * * * * * * * * * * * * //

dimensions      [0 -1 0 1 0 0 0];

internalField   nonuniform List<scalar> 
1800
(
0.262433
0.785835
1.30491
1.8169
2.31914
2.80932
3.28515
3.7448
4.18672
4.6096
5.01249
5.39475
5.756
6.0961
6.41519
6.71364
6.99185
7.25054
7.49051
7.71254
7.91757
8.10663
8.28073
8.44082
8.58798
8.72325
8.84767
8.9622
9.06787
9.16573
9.2568
9.34211
9.42272
9.49977
9.5745
9.64826
9.72254
9.79904
9.87973
9.967
10.0637
10.1732
10.2998
10.4489
10.6272
10.8434
11.1089
11.4386
11.8526
12.379
13.0572
13.9448
15.1295
16.751
19.0454
22.4434
27.8048
37.0477
55.019
95.6639
0.26389
0.790129
1.31201
1.82659
2.33128
2.82356
3.30131
3.76257
4.20573
4.62957
5.03314
5.41576
5.77711
6.11712
6.43586
6.73377
7.01139
7.26931
7.50836
7.72947
7.93357
8.12163
8.29465
8.45372
8.59988
8.73414
8.85752
8.97103
9.07571
9.17257
9.26259
9.3468
9.42627
9.50211
9.57551
9.64776
9.72032
9.79481
9.87315
9.95759
10.0508
10.1561
10.2774
10.4197
10.5893
10.7942
11.0447
11.3541
11.7403
12.2273
12.8477
13.6477
14.6928
16.078
17.9419
20.48
23.9233
28.3194
32.3454
27.6366
0.266816
0.79888
1.32635
1.84623
2.35581
2.85245
3.33394
3.79838
4.24411
4.66985
5.07472
5.45808
5.81961
6.15933
6.47743
6.77427
7.05052
7.30691
7.54424
7.76345
7.96554
8.15158
8.32258
8.47959
8.62366
8.75585
8.8772
8.98873
9.0914
9.18621
9.27414
9.35621
9.43344
9.50688
9.57765
9.64695
9.71613
9.78672
9.86046
9.93938
10.0259
10.1229
10.2338
10.3631
10.5161
10.6994
10.9215
11.1929
11.5273
11.9419
12.4588
13.1056
13.9159
14.9262
16.1644
17.6112
19.0891
19.9613
18.4066
10.1736
0.27129
0.812218
1.34823
1.87621
2.39315
2.89646
3.38372
3.8529
4.30246
4.73107
5.13781
5.52221
5.88399
6.22321
6.54018
6.83541
7.10957
7.36353
7.5982
7.81455
8.01363
8.19657
8.36447
8.51837
8.65934
8.78844
8.90674
9.01525
9.11493
9.20672
9.29159
9.3705
9.44441
9.5143
9.58121
9.64621
9.71053
9.77549
9.84259
9.91358
9.99048
10.0757
10.172
10.2829
10.4125
10.5659
10.7489
10.9688
11.234
11.5543
11.9399
12.4001
12.939
13.5466
14.1782
14.7114
14.8606
14.03
11.1461
4.82477
0.277429
0.830507
1.3782
1.91719
2.44421
2.95647
3.45151
3.92714
4.38174
4.8141
5.22333
5.60897
5.97091
6.30933
6.62468
6.9176
7.18887
7.43945
7.67042
7.88288
8.07791
8.25666
8.42031
8.57002
8.70686
8.83189
8.94613
9.05061
9.14631
9.23415
9.31502
9.38981
9.45941
9.52472
9.58665
9.64617
9.70428
9.7621
9.82084
9.88188
9.94677
10.0173
10.0956
10.184
10.2853
10.4026
10.5394
10.6993
10.8858
11.1015
11.3465
11.6157
11.8933
12.143
12.2904
12.1955
11.6119
10.1522
7.32297
2.80421
0.285372
0.854131
1.41692
1.97003
2.51007
3.0338
3.53861
4.02238
4.48332
4.92024
5.3324
5.71942
6.08135
6.41854
6.73161
7.02139
7.28883
7.53502
7.76119
7.96859
8.15842
8.33187
8.49017
8.63456
8.76618
8.88608
8.99529
9.09481
9.18559
9.26854
9.3445
9.41429
9.4787
9.53852
9.59454
9.64754
9.69834
9.7478
9.7968
9.84632
9.89744
9.95128
10.0091
10.0722
10.142
10.2199
10.3067
10.4031
10.5083
10.6193
10.7289
10.823
10.8757
10.8415
10.6452
10.1682
9.23928
7.6438
5.18946
1.87334
0.295288
0.883623
1.46532
2.03606
2.59211
3.13001
3.64686
4.14042
4.60892
5.05118
5.46658
5.85497
6.21657
6.55191
6.86186
7.14749
7.41001
7.65067
7.87083
8.07189
8.25524
8.4222
8.57401
8.71194
8.83721
8.95094
9.05413
9.14775
9.23273
9.30993
9.38014
9.44413
9.50257
9.55613
9.60544
9.65112
9.69377
9.73395
9.77225
9.80921
9.84537
9.88126
9.91731
9.95381
9.99084
10.0281
10.0646
10.0983
10.1251
10.1384
10.1268
10.0718
9.94489
9.7023
9.28056
8.593
7.53318
5.9943
3.91776
1.37301
0.307475
0.919847
1.52456
2.11687
2.69232
3.24723
3.77846
4.28354
4.76074
5.20899
5.62783
6.01734
6.37801
6.71067
7.01647
7.29676
7.55304
7.78681
7.99961
8.19297
8.36848
8.52761
8.67171
8.80204
8.91986
9.02632
9.12249
9.20932
9.28765
9.35831
9.42203
9.47949
9.53128
9.57794
9.61995
9.65773
9.69164
9.722
9.74904
9.7729
9.79362
9.81109
9.82503
9.83481
9.83939
9.8371
9.82535
9.80017
9.75553
9.68248
9.56789
9.39263
9.12971
8.74216
8.1817
7.39007
6.30612
4.88247
3.11428
1.07387
0.322236
0.963729
1.59625
2.2144
2.81312
3.38817
3.93616
4.45449
4.94149
5.39622
5.81844
6.20854
6.56741
6.89627
7.19661
7.4701
7.71857
7.94386
8.14775
8.33195
8.49816
8.64804
8.78308
8.90461
9.01387
9.11205
9.20021
9.27933
9.35022
9.41362
9.4702
9.52053
9.56513
9.60441
9.63868
9.66818
9.69306
9.71336
9.72899
9.73972
9.74512
9.74451
9.73693
9.72101
9.6948
9.65555
9.59952
9.52151
9.41433
9.26813
9.06964
8.80108
8.4392
7.95497
7.31399
6.47945
5.41879
4.11517
2.58303
0.882097
0.340012
1.01647
1.68244
2.33134
2.95753
3.55618
4.12348
4.6568
5.1545
5.61592
6.04115
6.43099
6.78681
7.11035
7.40355
7.6685
7.90735
8.12231
8.31549
8.48886
8.64424
8.78338
8.90793
9.01936
9.11894
9.20781
9.28704
9.35758
9.42025
9.47572
9.52458
9.56732
9.60432
9.63589
9.66218
9.68327
9.69908
9.7094
9.71386
9.71187
9.7026
9.6849
9.65722
9.61754
9.56324
9.49081
9.3957
9.27201
9.11212
8.90612
8.64152
8.3028
7.87107
7.32454
6.63986
5.795
4.77446
3.57638
2.22055
0.753657
0.361361
1.07976
1.78559
2.47107
3.12952
3.75548
4.3448
4.89474
5.40383
5.87177
6.2992
6.68748
7.03856
7.35478
7.63871
7.89294
8.12007
8.32262
8.50306
8.66368
8.80651
8.93337
9.046
9.14597
9.23465
9.31318
9.38258
9.44375
9.49748
9.54441
9.58505
9.6198
9.64894
9.67262
9.69088
9.70362
9.71059
9.71133
9.70519
9.6913
9.66849
9.63521
9.58947
9.52872
9.4498
9.34874
9.22047
9.05874
8.85594
8.60265
8.28756
7.89751
7.41768
6.83222
6.12584
5.28623
4.30765
3.1953
1.96914
0.665586
0.386967
1.1557
1.90903
2.6378
3.33402
3.9914
4.60548
5.17351
5.6943
6.16812
6.59635
6.98112
7.32517
7.63157
7.90357
8.14442
8.35728
8.54508
8.71055
8.85629
8.98463
9.09753
9.19677
9.28396
9.36051
9.42763
9.4863
9.53736
9.58154
9.61941
9.65142
9.67789
9.69898
9.71474
9.72508
9.72973
9.72828
9.72009
9.70428
9.67969
9.64487
9.59797
9.53668
9.45806
9.35854
9.23383
9.07865
8.88661
8.65026
8.36089
8.00851
7.58205
7.06993
6.46082
5.74503
4.91637
3.97459
2.92799
1.79513
0.60506
0.417788
1.24696
2.05713
2.83706
3.5773
4.27063
4.91222
5.49946
6.03173
6.5101
6.93694
7.31545
7.64939
7.94275
8.19962
8.42394
8.61949
8.78976
8.93781
9.06644
9.17819
9.27528
9.35956
9.43263
9.49589
9.55055
9.5976
9.63784
9.67191
9.7003
9.72339
9.74139
9.75439
9.76234
9.765
9.76199
9.75274
9.73646
9.71211
9.67833
9.63338
9.5752
9.50121
9.40827
9.29252
9.14943
8.97365
8.75883
8.49771
8.18222
7.80349
7.35221
6.81917
6.19617
5.47713
4.65961
3.74638
2.74695
1.67834
0.564657
0.45511
1.35715
2.23545
3.07601
3.86748
4.60163
5.27329
5.88031
6.423
6.90362
7.32587
7.69435
8.01413
8.29038
8.52817
8.73227
8.90707
9.0566
9.18439
9.29347
9.38651
9.46586
9.5335
9.59106
9.63988
9.68111
9.71573
9.74447
9.76791
9.78646
9.8004
9.80986
9.81484
9.81519
9.81057
9.80049
9.78425
9.76092
9.72934
9.68803
9.6351
9.56824
9.48472
9.38125
9.25384
9.09776
8.90763
8.67725
8.39952
8.06682
7.67105
7.20409
6.65834
6.0275
5.30768
4.49853
3.60435
2.63508
1.60654
0.539914
0.500568
1.49121
2.45151
3.36401
4.21503
4.99511
5.69904
6.32551
6.87631
7.35548
7.76857
8.122
8.42243
8.67648
8.89038
9.06986
9.22
9.34527
9.44966
9.53649
9.60856
9.66824
9.71756
9.75818
9.79142
9.81833
9.83977
9.85643
9.86881
9.87724
9.8819
9.88283
9.87994
9.873
9.86159
9.84514
9.82284
9.79367
9.75635
9.70933
9.65066
9.57792
9.48821
9.37816
9.24375
9.08017
8.88194
8.64294
8.35625
8.01444
7.6098
7.13479
6.58256
5.94778
5.22753
4.42242
3.53739
2.58246
1.57282
0.52828
0.556392
1.65563
2.71536
3.71353
4.63352
5.46468
6.20223
6.84642
7.40127
7.87339
8.27091
8.60258
8.8771
9.10275
9.28703
9.43673
9.5577
9.65488
9.73253
9.79426
9.84296
9.88103
9.91041
9.93274
9.94927
9.96098
9.96861
9.97272
9.97371
9.97183
9.96716
9.95967
9.94917
9.93533
9.9177
9.89563
9.86828
9.83457
9.79313
9.74235
9.68028
9.6045
9.51207
9.3995
9.2628
9.0972
8.89713
8.6564
8.36813
8.02489
7.61894
7.14273
6.58938
5.95354
5.23229
4.42624
3.54033
2.58454
1.57409
0.528691
0.625852
1.85947
3.04073
4.14127
5.1408
6.0278
6.79877
7.45664
8.00893
8.46589
8.83908
9.14024
9.38059
9.57029
9.7183
9.83237
9.91912
9.98396
10.0314
10.065
10.0879
10.1024
10.1103
10.1131
10.1119
10.1076
10.1009
10.0921
10.0814
10.0691
10.0552
10.0395
10.0217
10.0015
9.97826
9.95139
9.92003
9.88308
9.83918
9.78668
9.72362
9.64767
9.55598
9.44504
9.3108
9.1486
8.95291
8.71739
8.43501
8.09803
7.69834
7.22775
6.67863
6.04466
5.32187
4.50992
3.61309
2.64124
1.61023
0.541129
0.71353
2.11569
3.44687
4.67005
5.76066
6.70702
7.50844
8.17247
8.71191
9.14216
9.47932
9.73882
9.93476
10.0795
10.1835
10.2554
10.3025
10.3305
10.344
10.3467
10.3414
10.3304
10.3153
10.2975
10.2778
10.2569
10.2353
10.2132
10.1908
10.1682
10.1451
10.1213
10.0967
10.0706
10.0425
10.0117
9.97743
9.93853
9.89377
9.84155
9.77993
9.70665
9.61905
9.51378
9.38684
9.23356
9.04849
8.82522
8.55644
8.2339
7.84866
7.39134
6.85272
6.22454
5.50063
4.67848
3.76084
2.75717
1.68439
0.566675
0.825976
2.44296
3.96102
5.33136
6.52479
7.53119
8.35552
9.01292
9.52407
9.91149
10.1972
10.401
10.5402
10.6295
10.6807
10.7033
10.7049
10.6915
10.6674
10.6363
10.6007
10.5625
10.5231
10.4837
10.4448
10.4068
10.3701
10.3347
10.3006
10.2676
10.2356
10.2042
10.173
10.1416
10.1094
10.0756
10.0395
9.99991
9.9558
9.90572
9.84787
9.78008
9.69983
9.60412
9.48916
9.35036
9.18234
8.97861
8.73162
8.43246
8.07106
7.63628
7.11644
6.50016
5.77762
4.94253
3.99464
2.94217
1.80357
0.607872
0.973295
2.86912
4.62287
6.16953
7.47596
8.53739
9.36946
9.9996
10.46
10.7826
10.9968
11.1275
11.1956
11.2175
11.2064
11.1721
11.1224
11.063
10.9979
10.9304
10.8624
10.7957
10.7311
10.6693
10.6107
10.5555
10.5036
10.4548
10.4091
10.3661
10.3255
10.2868
10.2497
10.2135
10.1778
10.1418
10.1048
10.0659
10.0239
9.9776
9.92559
9.8659
9.79619
9.71376
9.61521
9.49632
9.35184
9.17533
8.95897
8.69325
8.36679
7.96624
7.47663
6.88205
6.1671
5.31937
4.33306
3.21322
1.97983
0.669128
1.17151
3.4374
5.4918
7.24799
8.6722
9.773
10.5853
11.156
11.5336
11.7623
11.8799
11.9168
11.8971
11.8387
11.7552
11.6565
11.5498
11.4401
11.3309
11.2248
11.1231
11.0267
10.9362
10.8518
10.7734
10.7008
10.6338
10.572
10.515
10.4622
10.4134
10.3679
10.3253
10.285
10.2465
10.2091
10.1721
10.1348
10.0963
10.0554
10.011
9.96161
9.90527
9.83959
9.76169
9.66785
9.55331
9.41189
9.23574
9.01484
8.7366
8.38527
7.94182
7.38434
6.68937
5.8348
4.80499
3.59792
2.23337
0.757918
1.44693
4.21719
6.65897
8.65849
10.1919
11.2971
12.0429
12.5057
12.756
12.853
12.8436
12.763
12.6372
12.4849
12.3191
12.1488
11.9801
11.8167
11.6611
11.5147
11.3783
11.2518
11.1353
11.0283
10.9302
10.8407
10.7589
10.6844
10.6165
10.5545
10.4979
10.4462
10.3986
10.3548
10.3141
10.2759
10.2397
10.205
10.1709
10.1367
10.1015
10.0642
10.0235
9.97761
9.92414
9.86014
9.78162
9.68311
9.5572
9.39383
9.17954
8.89639
8.521
8.02412
7.37126
6.52548
5.45407
4.14011
2.59786
0.887035
1.84584
5.32542
8.26841
10.5351
12.1396
13.1805
13.7836
14.0678
14.1316
14.0503
13.8784
13.6542
13.4039
13.1447
12.8876
12.6397
12.4049
12.1854
11.982
11.7948
11.6234
11.4671
11.3248
11.1957
11.0786
10.9726
10.8768
10.7902
10.712
10.6414
10.5777
10.5201
10.4682
10.4214
10.3791
10.3407
10.306
10.2744
10.2456
10.219
10.1941
10.1704
10.147
10.1231
10.0971
10.067
10.03
9.98174
9.91608
9.82376
9.6914
9.49976
9.22165
8.81988
8.24607
7.44183
6.34579
4.91051
3.13097
1.07939
2.45678
6.97025
10.5541
13.0739
14.6508
15.5019
15.8431
15.8504
15.6525
15.338
14.9655
14.5717
14.1795
13.8022
13.447
13.1174
12.8144
12.5379
12.2867
12.0591
11.8536
11.6682
11.5012
11.351
11.2158
11.0944
10.9854
10.8876
10.7999
10.7214
10.6512
10.5885
10.5328
10.4834
10.44
10.402
10.3691
10.3412
10.318
10.2995
10.2856
10.2762
10.2712
10.2706
10.2741
10.2808
10.2895
10.2979
10.3016
10.2937
10.2626
10.1896
10.0459
9.78774
9.35133
8.64991
7.5768
6.02513
3.93617
1.37909
3.46789
9.5447
13.904
16.5556
17.8879
18.3331
18.2367
17.8381
17.2898
16.684
16.0737
15.4877
14.9403
14.4376
13.9808
13.5684
13.1976
12.8652
12.5676
12.3015
12.0636
11.8509
11.6609
11.4911
11.3394
11.2039
11.0829
10.9749
10.8787
10.7931
10.7171
10.65
10.591
10.5396
10.4954
10.458
10.4273
10.4033
10.3859
10.3755
10.3725
10.3775
10.3911
10.4142
10.4477
10.4926
10.5495
10.6186
10.6988
10.7869
10.8755
10.9502
10.9848
10.9338
10.7216
10.2296
9.28636
7.67706
5.20931
1.87993
5.33804
13.8366
18.9616
21.3567
22.0121
21.7057
20.9326
19.9755
18.9848
18.0346
17.1577
16.3649
15.6564
15.0272
14.4702
13.9778
13.5425
13.1577
12.8171
12.5156
12.2482
12.011
11.8004
11.6132
11.4468
11.2988
11.1673
11.0505
10.9468
10.8551
10.7743
10.7034
10.6417
10.5887
10.544
10.5074
10.4789
10.4586
10.4468
10.4441
10.4515
10.4702
10.5015
10.5473
10.61
10.6923
10.7973
10.9282
11.0882
11.2796
11.5023
11.7509
12.0093
12.241
12.3717
12.2608
11.6619
10.1875
7.34405
2.81122
9.38564
21.5021
26.749
27.8975
27.0981
25.5451
23.8122
22.1465
20.6392
19.312
18.1574
17.1579
16.2933
15.5447
14.895
14.3299
13.8369
13.4058
13.0277
12.6954
12.4028
12.1445
11.9164
11.7145
11.5357
11.3773
11.237
11.1128
11.0031
10.9063
10.8214
10.7475
10.6837
10.6295
10.5846
10.5488
10.5222
10.5053
10.4985
10.5027
10.5193
10.5501
10.5972
10.6636
10.7528
10.8694
11.0191
11.2086
11.4461
11.741
12.1031
12.5417
13.0605
13.6493
14.2633
14.7798
14.913
14.0671
11.1682
4.83211
20.088
36.0372
38.6347
36.3864
32.9375
29.5645
26.6248
24.1591
22.1136
20.4165
19.0021
17.8158
16.8142
15.9631
15.2354
14.6099
14.0695
13.6007
13.1924
12.8356
12.5228
12.248
12.0061
11.7926
11.6042
11.4377
11.2906
11.1607
11.0462
10.9456
10.8577
10.7814
10.716
10.6609
10.6159
10.5809
10.556
10.5418
10.5391
10.549
10.5731
10.6137
10.6737
10.757
10.8681
11.0135
11.201
11.4411
11.7467
12.1351
12.6277
13.2521
14.0416
15.0325
16.2525
17.682
19.1434
19.9997
18.4294
10.1812
55.0171
63.9241
55.3662
46.0757
38.7012
33.1504
28.9634
25.7516
23.2395
21.2385
19.6187
18.2891
17.1847
16.258
15.4736
14.8047
14.2306
13.7352
13.3057
12.9317
12.605
12.3187
12.0672
11.8459
11.6508
11.4787
11.327
11.1932
11.0755
10.9723
10.8823
10.8044
10.7379
10.6823
10.6373
10.6028
10.5792
10.5669
10.567
10.5809
10.6103
10.658
10.7271
10.8223
10.9492
11.1153
11.3305
11.6079
11.9647
12.4247
13.0205
13.7976
14.8214
16.1867
18.032
20.5523
23.9788
28.3587
32.3688
27.6444
191.073
109.276
72.8304
53.849
42.641
35.3728
30.3268
26.6443
23.8544
21.6794
19.9451
18.5373
17.3775
16.4106
15.5963
14.9047
14.3131
13.8039
13.3634
12.9806
12.6467
12.3545
12.0982
11.8728
11.6744
11.4995
11.3454
11.2097
11.0903
10.9858
10.8947
10.8161
10.7491
10.6932
10.6482
10.614
10.591
10.5798
10.5813
10.5972
10.6294
10.6807
10.7546
10.856
10.9911
11.1682
11.3979
11.6951
12.0795
12.5787
13.2318
14.0963
15.2595
16.8609
19.1365
22.5166
27.8609
37.0874
55.0426
95.6717
)
;

boundaryField
{
    xmin
    {
        type            calculated;
        value           nonuniform List<scalar> 
30
(
0.262433
0.26389
0.266816
0.27129
0.277429
0.285372
0.295288
0.307475
0.322236
0.340012
0.361361
0.386967
0.417788
0.45511
0.500568
0.556392
0.625852
0.71353
0.825976
0.973295
1.17151
1.44693
1.84584
2.45678
3.46789
5.33804
9.38564
20.088
55.0171
191.073
)
;
    }
    xmax
    {
        type            calculated;
        value           nonuniform List<scalar> 
30
(
95.6639
27.6366
10.1736
4.82477
2.80421
1.87334
1.37301
1.07387
0.882097
0.753657
0.665586
0.60506
0.564657
0.539914
0.52828
0.528691
0.541129
0.566675
0.607872
0.669128
0.757918
0.887035
1.07939
1.37909
1.87993
2.81122
4.83211
10.1812
27.6444
95.6717
)
;
    }
    ymin
    {
        type            calculated;
        value           nonuniform List<scalar> 
60
(
0.26205
0.784797
1.30318
1.81454
2.31616
2.80579
3.28115
3.74041
4.182
4.60462
5.00736
5.38955
5.75073
6.09082
6.41006
6.70865
6.98695
7.24583
7.48609
7.70834
7.91355
8.10287
8.27727
8.43762
8.58499
8.72051
8.84521
8.96001
9.06591
9.16399
9.25533
9.34093
9.42184
9.4992
9.57426
9.6484
9.72312
9.80012
9.88141
9.96939
10.0669
10.1775
10.3055
10.4563
10.6369
10.856
11.1253
11.4602
11.8815
12.4182
13.1116
14.0228
15.246
16.9354
19.3625
23.0579
29.2112
40.9903
68.5395
150.171
)
;
    }
    ymax
    {
        type            calculated;
        value           nonuniform List<scalar> 
60
(
300.087
136.318
80.7174
56.6645
43.8732
36.0107
30.7
26.8821
24.0156
21.7937
20.0292
18.6008
17.4268
16.4495
15.6275
14.93
14.334
13.8213
13.378
12.993
12.6572
12.3636
12.106
11.8796
11.6803
11.5048
11.35
11.2138
11.0941
10.9892
10.8979
10.819
10.7519
10.6959
10.6509
10.6168
10.5939
10.583
10.585
10.6013
10.6342
10.6864
10.7616
10.8646
11.0017
11.1816
11.4151
11.7174
12.109
12.6184
13.2867
14.1747
15.3764
17.0457
19.4538
23.1314
29.2676
41.0301
68.5632
150.179
)
;
    }
    zmin
    {
        type            empty;
    }
    zmax
    {
        type            empty;
    }
}


// ************************************************************************* //
