/*--------------------------------*- C++ -*----------------------------------*\
  =========                 |
  \\      /  F ield         | OpenFOAM: The Open Source CFD Toolbox
   \\    /   O peration     | Website:  https://openfoam.org
    \\  /    A nd           | Version:  6
     \\/     M anipulation  |
\*---------------------------------------------------------------------------*/
FoamFile
{
    version     2.0;
    format      ascii;
    class       volScalarField;
    location    "1";
    object      gradTx;
}
// * * * * * * * * * * * * * * * * * * * * * * * * * * * * * * * * * * * * * //

dimensions      [0 -1 0 1 0 0 0];

internalField   nonuniform List<scalar> 
1800
(
0.261712
0.260282
0.257435
0.253245
0.247814
0.241248
0.233653
0.225213
0.216053
0.20634
0.196232
0.185841
0.17532
0.164834
0.154455
0.144222
0.134295
0.124784
0.115629
0.106865
0.0986317
0.0909311
0.0836885
0.0769294
0.0707225
0.0650559
0.0598745
0.0551747
0.0509957
0.0473545
0.0442344
0.0416284
0.0395671
0.0381053
0.0373003
0.0372133
0.0379294
0.0395738
0.0423172
0.0463782
0.0520353
0.0596504
0.0697037
0.0828363
0.0999111
0.122103
0.151043
0.18905
0.239512
0.307537
0.401153
0.533601
0.728145
1.02911
1.53062
2.46219
4.4831
9.83206
27.2951
95.3224
0.786557
0.782193
0.773629
0.760988
0.744602
0.724764
0.701833
0.676358
0.64875
0.619429
0.588915
0.557669
0.526025
0.49435
0.463085
0.432445
0.402606
0.373868
0.346379
0.320199
0.295455
0.272225
0.250504
0.23032
0.211706
0.194636
0.179072
0.165027
0.152531
0.141578
0.132153
0.124292
0.118089
0.113675
0.111193
0.110827
0.112844
0.117617
0.125641
0.137548
0.15415
0.176509
0.206027
0.244565
0.294619
0.359565
0.444066
0.554698
0.700968
0.897021
1.16463
1.53871
2.07801
2.8868
4.16181
6.29721
10.1213
17.3821
31.321
53.9947
1.31573
1.30841
1.2939
1.27251
1.24479
1.21127
1.17266
1.12964
1.08306
1.03376
0.982423
0.929811
0.876678
0.823582
0.771107
0.719745
0.669839
0.621758
0.575783
0.532077
0.490789
0.45201
0.415785
0.382157
0.351142
0.322692
0.296766
0.273372
0.25253
0.234231
0.218471
0.205308
0.194871
0.187344
0.182957
0.182022
0.184975
0.192407
0.205094
0.224031
0.250507
0.286204
0.333328
0.394784
0.474437
0.577472
0.710959
0.884712
1.11265
1.41495
1.82163
2.37863
3.15837
4.27827
5.93261
8.44357
12.3226
18.2542
26.6122
35.3405
1.85225
1.84173
1.82098
1.79045
1.75082
1.70289
1.64777
1.58653
1.52022
1.45004
1.37715
1.30256
1.22728
1.15217
1.07803
1.00553
0.93524
0.867594
0.802916
0.741498
0.683588
0.629265
0.57852
0.531402
0.487965
0.448177
0.411946
0.379225
0.350013
0.324318
0.302157
0.283592
0.268761
0.25788
0.251256
0.249311
0.252619
0.261949
0.278301
0.30297
0.337634
0.384468
0.4463
0.526822
0.630884
0.764925
0.937572
1.16054
1.44998
1.82852
2.32833
2.99581
3.89859
5.13529
6.8468
9.2219
12.4713
16.6996
21.5333
25.4145
2.39924
2.38534
2.35789
2.31744
2.26503
2.20184
2.1291
2.04838
1.96123
1.86911
1.77356
1.67599
1.57767
1.47977
1.38331
1.28913
1.19796
1.11039
1.0268
0.947504
0.872814
0.802849
0.737588
0.677031
0.62121
0.57009
0.523571
0.481559
0.444005
0.410897
0.382248
0.358126
0.338677
0.32414
0.314865
0.311343
0.314248
0.324474
0.343191
0.371913
0.412588
0.467731
0.540584
0.635326
0.75737
0.913785
1.11386
1.36989
1.69822
2.12083
2.66735
3.37768
4.3049
5.5175
7.0974
9.12595
11.6412
14.5397
17.407
19.3696
2.96019
2.9425
2.90766
2.85646
2.7901
2.7102
2.61844
2.51675
2.40717
2.29163
2.17202
2.05014
1.92763
1.80594
1.6863
1.56972
1.45709
1.34915
1.24634
1.14899
1.05737
0.971669
0.891879
0.817951
0.749829
0.687439
0.630671
0.579409
0.533551
0.493025
0.457816
0.427982
0.403669
0.385123
0.372706
0.366941
0.368551
0.378507
0.39808
0.428906
0.473083
0.533295
0.612977
0.716511
0.849475
1.019
1.23423
1.50694
1.85219
2.28925
2.84258
3.54265
4.42583
5.53239
6.89932
8.54335
10.428
12.4107
14.1854
15.2873
3.53874
3.51689
3.47379
3.41059
3.32881
3.23038
3.11767
2.9931
2.85909
2.71818
2.57274
2.42495
2.27679
2.13003
1.98616
1.84634
1.7116
1.58276
1.46036
1.34473
1.2361
1.1346
1.04028
0.953037
0.872737
0.799208
0.732294
0.671852
0.617736
0.569811
0.528002
0.492326
0.462907
0.439975
0.423884
0.41515
0.414502
0.422926
0.441719
0.472552
0.517549
0.579405
0.661538
0.768263
0.904993
1.07848
1.29714
1.57147
1.91435
2.3414
2.87111
3.52449
4.32341
5.28697
6.42408
7.72006
9.11682
10.4899
11.6365
12.3068
4.1391
4.11253
4.0601
3.98325
3.88405
3.76495
3.62885
3.47882
3.31793
3.14928
2.97581
2.80012
2.62457
2.45123
2.28188
2.11787
1.96027
1.80997
1.66755
1.5334
1.40769
1.29044
1.18162
1.08116
0.988824
0.904354
0.827487
0.758009
0.695723
0.64044
0.592017
0.550404
0.51567
0.487997
0.467703
0.455268
0.451381
0.456986
0.473333
0.502034
0.545141
0.605231
0.685525
0.790043
0.923763
1.09277
1.3044
1.56745
1.89234
2.29089
2.776
3.36077
4.0563
4.86806
5.79002
6.79597
7.82933
8.79532
9.5641
9.99651
4.76606
4.73397
4.67081
4.57835
4.45917
4.31652
4.15398
3.97537
3.78455
3.58528
3.38109
3.17512
2.97012
2.76849
2.57225
2.38291
2.20165
2.02933
1.86652
1.7136
1.57074
1.43783
1.31471
1.20118
1.09702
1.00184
0.915289
0.837013
0.766733
0.704191
0.649181
0.601576
0.561362
0.528644
0.503666
0.486838
0.478773
0.480322
0.492619
0.517133
0.555745
0.610816
0.685258
0.782631
0.907279
1.06443
1.26021
1.50165
1.79667
2.15376
2.58126
3.08631
3.67294
4.33896
5.07199
5.84449
6.60922
7.29801
7.82795
8.11863
5.42506
5.38654
5.31077
5.20011
5.05783
4.888
4.69517
4.48414
4.25966
4.02624
3.78813
3.54909
3.31229
3.08043
2.85572
2.63983
2.43403
2.23914
2.05564
1.88382
1.72378
1.57535
1.43819
1.31195
1.19626
1.09069
0.994768
0.908015
0.830017
0.760419
0.698929
0.64534
0.599543
0.561542
0.531477
0.509649
0.496556
0.492917
0.4997
0.518163
0.549926
0.597037
0.662023
0.747912
0.85831
0.997488
1.17035
1.38227
1.63896
1.9462
2.30895
2.73033
3.21019
3.74285
4.3145
4.90077
5.46505
5.95956
6.33102
6.53138
6.12255
6.0764
5.98567
5.85344
5.68401
5.48247
5.2546
5.00639
4.74367
4.47192
4.19616
3.92078
3.64948
3.38523
3.13039
2.88671
2.65546
2.43746
2.23307
2.04236
1.86526
1.70152
1.55069
1.41219
1.28547
1.16995
1.06506
0.970217
0.884869
0.808525
0.740779
0.681318
0.629929
0.586503
0.551051
0.523738
0.504904
0.495096
0.495084
0.505879
0.528778
0.56543
0.617897
0.688652
0.780552
0.896891
1.04141
1.21807
1.43078
1.68316
1.97794
2.31585
2.69468
3.10775
3.54245
3.97909
4.3906
4.74411
5.00522
5.14442
6.86619
6.81078
6.70208
6.54404
6.34224
6.10327
5.83443
5.54317
5.23669
4.92161
4.60384
4.28845
3.9796
3.68058
3.39387
3.12119
2.86371
2.62214
2.3967
2.18727
1.99347
1.81484
1.65079
1.5006
1.36347
1.23863
1.12534
1.02292
0.930674
0.84799
0.77432
0.709222
0.652356
0.603486
0.562486
0.529358
0.50426
0.487522
0.479674
0.481458
0.493837
0.518019
0.555531
0.608247
0.678328
0.768149
0.880355
1.01774
1.18287
1.37782
1.60381
1.86045
2.1449
2.45101
2.76851
3.08258
3.37412
3.62104
3.80131
3.89666
7.66522
7.59847
7.46777
7.27842
7.03761
6.75394
6.43671
6.09521
5.73829
5.37397
5.00916
4.64961
4.29992
3.96363
3.64324
3.34042
3.05612
2.79074
2.54429
2.31643
2.1065
1.91367
1.73711
1.57593
1.42913
1.29573
1.1748
1.06546
0.966916
0.878407
0.799255
0.728876
0.666786
0.612599
0.566038
0.52694
0.495264
0.471099
0.454689
0.446467
0.447056
0.457239
0.477981
0.510516
0.556326
0.616996
0.694186
0.78968
0.905062
1.04141
1.19909
1.37727
1.57346
1.78286
1.998
2.20865
2.40222
2.56465
2.6823
2.74423
8.53094
8.45012
8.29218
8.06422
7.77581
7.43819
7.06326
6.66268
6.24733
5.82682
5.40919
5.0009
4.6069
4.23081
3.87505
3.54107
3.22954
2.94045
2.67337
2.42764
2.20232
1.99622
1.80814
1.63693
1.48139
1.34034
1.21264
1.09723
0.993134
0.899463
0.815402
0.740228
0.673307
0.614093
0.562137
0.517096
0.478733
0.446899
0.421539
0.402728
0.390705
0.385848
0.388607
0.399558
0.419484
0.449272
0.489756
0.541808
0.606261
0.683601
0.773808
0.876128
0.98885
1.10897
1.23196
1.35183
1.46145
1.55301
1.61903
1.65366
9.47748
9.37881
9.18662
8.91046
8.56323
8.15975
7.7154
7.24491
6.76159
6.27684
5.79989
5.33787
4.89595
4.47767
4.08514
3.71932
3.38045
3.06806
2.78116
2.51854
2.27888
2.06066
1.86231
1.6823
1.51919
1.37158
1.23815
1.11764
1.00891
0.910899
0.822655
0.743318
0.672111
0.608329
0.551343
0.500613
0.455688
0.416194
0.3818
0.352222
0.327266
0.306861
0.290994
0.279636
0.272835
0.270791
0.273677
0.281572
0.294631
0.312933
0.336364
0.364563
0.396863
0.432205
0.469025
0.505315
0.538764
0.566838
0.587135
0.597776
10.5227
10.4011
10.165
9.82774
9.4069
8.9222
8.39367
7.83996
7.2773
6.71908
6.17571
5.65475
5.16138
4.69876
4.26844
3.87069
3.50495
3.17012
2.8646
2.58655
2.33406
2.10522
1.89809
1.71078
1.54153
1.38869
1.25074
1.12627
1.01394
0.912549
0.820994
0.738275
0.663474
0.595739
0.534278
0.478347
0.427265
0.38041
0.337198
0.297033
0.259292
0.223397
0.188848
0.155101
0.121499
0.0874622
0.0525226
0.0161121
-0.0222394
-0.0628432
-0.105842
-0.151109
-0.198163
-0.246062
-0.293401
-0.338313
-0.378514
-0.411566
-0.435152
-0.447436
11.6895
11.5378
11.2445
10.8286
10.3144
9.72847
9.09714
8.44395
7.78856
7.14648
6.52908
5.94407
5.39612
4.8876
4.41912
3.98998
3.5986
3.24289
2.92054
2.62898
2.36565
2.12811
1.91402
1.72116
1.54743
1.39092
1.24989
1.12275
1.00802
0.904348
0.810497
0.725326
0.647777
0.57686
0.511636
0.451194
0.394628
0.341046
0.289583
0.239367
0.189419
0.138654
0.0859914
0.0303652
-0.0294683
-0.0948773
-0.167119
-0.247428
-0.336887
-0.436255
-0.545795
-0.665
-0.792324
-0.92488
-1.05827
-1.18665
-1.30294
-1.39941
-1.46871
-1.505
13.008
12.8159
12.4468
11.9278
11.2934
10.5802
9.8225
9.05011
8.28655
7.54923
6.85006
6.19626
5.59143
5.03648
4.53052
4.0715
3.65654
3.28237
2.94568
2.64312
2.37145
2.1276
1.90877
1.71238
1.53606
1.37764
1.23515
1.10682
0.991035
0.886317
0.791313
0.704759
0.625468
0.552311
0.48421
0.420116
0.358948
0.299569
0.240805
0.181468
0.120283
0.0557549
-0.0137904
-0.0900752
-0.174933
-0.270426
-0.378687
-0.501795
-0.641602
-0.799509
-0.976121
-1.17082
-1.38126
-1.60282
-1.82814
-2.0471
-2.24719
-2.41443
-2.53527
-2.59879
14.5187
14.2711
13.7989
13.1424
12.3513
11.4762
10.5626
9.64741
8.75825
7.91389
7.12574
6.39951
5.73679
5.13632
4.59503
4.10898
3.67366
3.28442
2.93674
2.62639
2.34938
2.10206
1.88111
1.68358
1.50681
1.34841
1.20623
1.07834
0.96298
0.858572
0.763665
0.676905
0.597004
0.522711
0.452813
0.386118
0.321413
0.257389
0.192607
0.125527
0.0545211
-0.0222314
-0.106877
-0.201838
-0.309692
-0.433224
-0.575459
-0.739485
-0.928204
-1.14403
-1.38836
-1.66094
-1.95912
-2.27697
-2.60433
-2.92644
-3.22425
-3.47585
-3.6592
-3.75607
16.277
15.951
15.3352
14.4916
13.4933
12.4109
11.3042
10.2187
9.18512
8.22232
7.33953
6.53932
5.81993
5.17692
4.60435
4.09576
3.64469
3.24489
2.89053
2.57634
2.29761
2.05009
1.83
1.63401
1.45919
1.30297
1.16303
1.03731
0.923977
0.821343
0.727884
0.642184
0.562888
0.488673
0.418215
0.350183
0.28322
0.215896
0.146611
0.0735355
-0.0053592
-0.0922776
-0.189742
-0.300753
-0.428698
-0.577247
-0.750432
-0.952515
-1.18775
-1.46006
-1.77231
-2.12545
-2.51737
-2.94163
-3.38576
-3.83008
-4.24755
-4.6055
-4.86957
-5.01024
18.3611
17.9207
17.0993
15.9955
14.7192
13.3697
12.0248
10.7379
9.54126
8.4507
7.47068
6.59834
5.82677
5.14707
4.54966
4.02506
3.56448
3.1599
2.80415
2.4909
2.21468
1.97069
1.75475
1.56324
1.39298
1.24123
1.10559
0.983901
0.874261
0.774944
0.684374
0.601086
0.523689
0.450826
0.381128
0.31317
0.245455
0.176415
0.104343
0.0272578
-0.0571875
-0.151632
-0.259017
-0.382816
-0.527131
-0.6966
-0.896447
-1.13235
-1.41028
-1.73621
-2.11536
-2.5511
-3.04332
-3.5865
-4.16701
-4.76049
-5.33041
-5.82908
-6.20329
-6.40502
20.8859
20.2713
19.1458
17.672
16.0183
14.324
12.6873
11.1669
9.79135
8.56861
7.4941
6.55656
5.74177
5.03499
4.42214
3.89037
3.4283
3.02608
2.67522
2.36845
2.09955
1.86326
1.65509
1.47119
1.30824
1.1634
1.03419
0.918433
0.814206
0.719781
0.633578
0.554118
0.479987
0.409817
0.342241
0.275822
0.208991
0.140048
0.0671642
-0.0117297
-0.099131
-0.198009
-0.311757
-0.444331
-0.600441
-0.785628
-1.00639
-1.27009
-1.5848
-1.9592
-2.40188
-2.92023
-3.5183
-4.19408
-4.93531
-5.71446
-6.48443
-7.17711
-7.70957
-8.00153
24.0253
23.1327
21.5406
19.5284
17.3578
15.2208
13.2334
11.4509
9.88859
8.5383
7.38061
6.392
5.54874
4.829
4.21356
3.68597
3.2323
2.84094
2.50222
2.20808
1.95179
1.72772
1.53117
1.35818
1.20539
1.06994
0.949337
0.841441
0.744353
0.656391
0.576019
0.501797
0.432328
0.366249
0.302212
0.238821
0.174532
0.107605
0.0361028
-0.0421395
-0.129673
-0.229598
-0.345638
-0.482217
-0.644605
-0.839124
-1.07348
-1.35677
-1.69957
-2.11387
-2.6128
-3.20964
-3.91559
-4.73624
-5.66565
-6.67767
-7.71578
-8.68529
-9.45637
-9.88992
28.0571
26.6938
24.3555
21.5432
18.6637
15.9681
13.5746
11.5149
9.77378
8.31537
7.09808
6.08208
5.23219
4.5187
3.91715
3.40763
2.974
2.6032
2.28468
2.00988
1.77178
1.56464
1.38368
1.22497
1.08521
0.961609
0.851776
0.753641
0.665394
0.585435
0.512318
0.444689
0.381229
0.320632
0.261588
0.20275
0.142658
0.0796468
0.0117828
-0.0631605
-0.147764
-0.245117
-0.359044
-0.494275
-0.656527
-0.852761
-1.09167
-1.38397
-1.74278
-2.18388
-2.72588
-3.38998
-4.19818
-5.16965
-6.31336
-7.61475
-9.01575
-10.3919
-11.5407
-12.2119
33.4523
31.2301
27.6443
23.6251
19.7857
16.4131
13.5819
11.2603
9.37627
7.85129
6.61429
5.60607
4.77922
4.09646
3.52872
3.0534
2.65284
2.31317
2.02346
1.775
1.56084
1.37535
1.21393
1.07281
0.948874
0.839511
0.742502
0.655936
0.578146
0.507663
0.443161
0.38341
0.32722
0.273407
0.220755
0.167991
0.113745
0.0564962
-0.00554338
-0.0745286
-0.153011
-0.243996
-0.351204
-0.479378
-0.634419
-0.823658
-1.05644
-1.34469
-1.7037
-2.15293
-2.71692
-3.42625
-4.31745
-5.43085
-6.80348
-8.4522
-10.3406
-12.3259
-14.1024
-15.2052
41.0697
37.13
31.3664
25.527
20.4411
16.3169
13.0796
10.568
8.61972
7.09922
5.90171
4.94871
4.18218
3.5592
3.04791
2.62444
2.27079
1.97318
1.72096
1.50583
1.32124
1.16199
1.02387
0.90347
0.797979
0.705071
0.622782
0.549434
0.483571
0.423904
0.369272
0.318592
0.270832
0.224977
0.179981
0.134699
0.0878827
0.0381744
-0.0159748
-0.0764856
-0.145737
-0.226553
-0.322388
-0.437684
-0.578119
-0.750957
-0.965677
-1.23467
-1.57446
-2.00721
-2.56261
-3.28066
-4.21453
-5.43284
-7.01754
-9.04999
-11.5683
-14.469
-17.3378
-19.3011
52.627
44.8536
35.1643
26.6756
20.1348
15.3336
11.8517
9.31253
7.43539
6.02414
4.94459
4.10487
3.44156
2.91024
2.47925
2.12569
1.83274
1.5878
1.38137
1.2061
1.05631
0.927502
0.816102
0.719223
0.63451
0.560022
0.494132
0.435454
0.382792
0.335098
0.291418
0.250858
0.212562
0.175704
0.139449
0.102864
0.0648874
0.0243607
-0.0199966
-0.0697615
-0.126958
-0.194054
-0.274061
-0.370843
-0.489413
-0.636381
-0.820588
-1.05381
-1.35231
-1.73883
-2.24562
-2.91924
-3.82728
-5.06845
-6.78375
-9.16195
-12.4138
-16.6438
-21.4787
-25.3604
71.9575
54.4933
37.7618
25.8761
18.0887
13.0311
9.68102
7.39501
5.78516
4.6174
3.74762
3.08461
2.56898
2.16093
1.83314
1.56634
1.34666
1.16394
1.01061
0.880899
0.770388
0.675606
0.59381
0.522804
0.460813
0.40638
0.358282
0.315475
0.277064
0.242276
0.210418
0.18083
0.152858
0.125871
0.0992563
0.0723508
0.0443719
0.01442
-0.0185067
-0.0556005
-0.0983653
-0.148678
-0.208914
-0.282136
-0.372278
-0.484638
-0.626479
-0.807626
-1.04209
-1.35021
-1.76192
-2.3233
-3.10686
-4.22999
-5.88709
-8.40029
-12.281
-18.2138
-26.5728
-35.3014
108.752
63.4004
35.5135
20.9784
13.3128
9.02088
6.44634
4.80132
3.69282
2.91267
2.34387
1.91698
1.5888
1.3314
1.12606
0.959843
0.823596
0.710687
0.616219
0.536512
0.468745
0.410725
0.360725
0.317371
0.279566
0.24641
0.21714
0.191097
0.167718
0.146536
0.127144
0.109146
0.0921278
0.0756788
0.0594133
0.0429371
0.0257874
0.00741187
-0.0128367
-0.0357359
-0.0622142
-0.0933949
-0.130798
-0.176472
-0.232906
-0.303445
-0.392983
-0.50813
-0.658326
-0.857873
-1.12855
-1.5053
-2.04688
-2.85759
-4.13426
-6.27103
-10.0961
-17.3578
-31.2972
-53.9711
190.899
54.8425
19.9134
9.21105
5.16344
3.29329
2.28215
1.67111
1.27211
0.9966
0.798215
0.650606
0.537846
0.449821
0.379853
0.323378
0.277193
0.23899
0.207078
0.180189
0.157352
0.137816
0.12099
0.10641
0.0937049
0.0825709
0.0727443
0.0639975
0.056145
0.049039
0.0425431
0.0365073
0.030779
0.0252352
0.0197734
0.0142512
0.00846973
0.00224143
-0.00459499
-0.0122969
-0.021258
-0.0318657
-0.0445478
-0.0600319
-0.0792644
-0.103344
-0.133946
-0.173469
-0.22525
-0.294433
-0.389071
-0.522424
-0.717758
-1.01936
-1.52141
-2.45343
-4.47469
-9.8239
-27.2871
-95.3146
)
;

boundaryField
{
    xmin
    {
        type            calculated;
        value           nonuniform List<scalar> 
30
(
0.26205
0.787683
1.31761
1.85495
2.40277
2.96466
3.54426
4.14582
4.77416
5.43476
6.1342
6.8802
7.68207
8.55135
9.50251
10.5536
11.7281
13.057
14.5822
16.3609
18.4754
21.047
24.2631
28.4303
34.0902
42.3019
55.4424
79.8445
135.794
299.913
)
;
    }
    xmax
    {
        type            calculated;
        value           nonuniform List<scalar> 
30
(
149.829
67.5152
39.283
26.8208
19.9839
15.6039
12.4905
10.1119
8.195
6.58351
5.18037
3.92117
2.76013
1.66254
0.600479
-0.450579
-1.51429
-2.61509
-3.78099
-5.04658
-6.4575
-8.07825
-10.0056
-12.3958
-15.522
-19.9155
-26.7669
-39.244
-67.4916
-149.821
)
;
    }
    ymin
    {
        type            calculated;
        value           nonuniform List<scalar> 
60
(
0.261712
0.260282
0.257435
0.253245
0.247814
0.241248
0.233653
0.225213
0.216053
0.20634
0.196232
0.185841
0.17532
0.164834
0.154455
0.144222
0.134295
0.124784
0.115629
0.106865
0.0986317
0.0909311
0.0836885
0.0769294
0.0707225
0.0650559
0.0598745
0.0551747
0.0509957
0.0473545
0.0442344
0.0416284
0.0395671
0.0381053
0.0373003
0.0372133
0.0379294
0.0395738
0.0423172
0.0463782
0.0520353
0.0596504
0.0697037
0.0828363
0.0999111
0.122103
0.151043
0.18905
0.239512
0.307537
0.401153
0.533601
0.728145
1.02911
1.53062
2.46219
4.4831
9.83206
27.2951
95.3224
)
;
    }
    ymax
    {
        type            calculated;
        value           nonuniform List<scalar> 
60
(
190.899
54.8425
19.9134
9.21105
5.16344
3.29329
2.28215
1.67111
1.27211
0.9966
0.798215
0.650606
0.537846
0.449821
0.379853
0.323378
0.277193
0.23899
0.207078
0.180189
0.157352
0.137816
0.12099
0.10641
0.0937049
0.0825709
0.0727443
0.0639975
0.056145
0.049039
0.0425431
0.0365073
0.030779
0.0252352
0.0197734
0.0142512
0.00846973
0.00224143
-0.00459499
-0.0122969
-0.021258
-0.0318657
-0.0445478
-0.0600319
-0.0792644
-0.103344
-0.133946
-0.173469
-0.22525
-0.294433
-0.389071
-0.522424
-0.717758
-1.01936
-1.52141
-2.45343
-4.47469
-9.8239
-27.2871
-95.3146
)
;
    }
    zmin
    {
        type            empty;
    }
    zmax
    {
        type            empty;
    }
}


// ************************************************************************* //
