/*--------------------------------*- C++ -*----------------------------------*\
  =========                 |
  \\      /  F ield         | OpenFOAM: The Open Source CFD Toolbox
   \\    /   O peration     | Website:  https://openfoam.org
    \\  /    A nd           | Version:  6
     \\/     M anipulation  |
\*---------------------------------------------------------------------------*/
FoamFile
{
    version     2.0;
    format      ascii;
    class       volScalarField;
    location    "1";
    object      T;
}
// * * * * * * * * * * * * * * * * * * * * * * * * * * * * * * * * * * * * * //

dimensions      [0 0 0 1 0 0 0];

internalField   nonuniform List<scalar> 
1800
(
0.0436751
0.130799
0.217196
0.302423
0.386026
0.467632
0.546858
0.623401
0.697
0.767436
0.834561
0.898258
0.958454
1.01514
1.06834
1.11811
1.16449
1.20764
1.24768
1.28472
1.31892
1.35048
1.37955
1.40627
1.43083
1.45342
1.4742
1.49334
1.51099
1.52733
1.54255
1.55682
1.57031
1.5832
1.59571
1.60807
1.62052
1.63335
1.6469
1.66156
1.67782
1.69625
1.71759
1.74272
1.77281
1.80933
1.85421
1.91003
1.98025
2.0697
2.18527
2.33714
2.54101
2.82257
3.22708
3.84298
4.86854
6.83171
11.4232
25.0285
0.13128
0.393091
0.652743
0.908843
1.16007
1.40524
1.64324
1.87313
2.09415
2.30563
2.5071
2.69824
2.87888
3.04893
3.20845
3.35765
3.49674
3.62605
3.74599
3.85697
3.95946
4.05394
4.14094
4.22095
4.29449
4.36208
4.42424
4.48146
4.53426
4.58315
4.62865
4.67125
4.71151
4.74998
4.78729
4.82411
4.86118
4.89934
4.93959
4.9831
5.03129
5.08587
5.14896
5.22322
5.312
5.41963
5.55171
5.71567
5.92151
6.18299
6.51952
6.9594
7.54533
8.34474
9.46987
11.1193
13.668
17.8668
25.2561
38.7475
0.219602
0.657552
1.09187
1.52015
1.94021
2.35001
2.74773
3.13178
3.50082
3.85382
4.18999
4.50876
4.80986
5.09322
5.35892
5.60729
5.83875
6.05385
6.25325
6.4377
6.60797
6.7649
6.90931
7.04208
7.16408
7.27618
7.37921
7.47402
7.56146
7.64238
7.71761
7.78802
7.85449
7.91794
7.97938
8.03991
8.10073
8.16323
8.229
8.29996
8.37836
8.46696
8.56916
8.68918
8.83235
9.00547
9.21733
9.47944
9.80714
10.2212
10.7504
11.4356
12.3362
13.5412
15.1884
17.4963
20.8174
25.7113
32.9869
43.4528
0.309158
0.925677
1.53698
2.13966
2.73061
3.30688
3.86587
4.40539
4.92356
5.41887
5.89025
6.33697
6.75862
7.15515
7.52674
7.87383
8.19709
8.49733
8.77549
9.0326
9.26982
9.48833
9.68933
9.87401
10.0436
10.1993
10.3424
10.4739
10.5952
10.7073
10.8114
10.9087
11.0005
11.0879
11.1724
11.2554
11.3386
11.4238
11.5132
11.6094
11.7152
11.8344
11.9715
12.132
12.3227
12.5526
12.8327
13.1776
13.6064
14.1443
14.8254
15.6965
16.8226
18.2955
20.2461
22.8601
26.3941
31.1743
37.5272
45.5299
0.400462
1.19903
1.99069
2.77096
3.53565
4.28098
5.00354
5.70038
6.36913
7.00786
7.6152
8.19024
8.73253
9.24202
9.71904
10.1642
10.5785
10.9629
11.3187
11.6474
11.9504
12.2293
12.4856
12.721
12.937
13.1351
13.317
13.4842
13.6381
13.7802
13.912
14.035
14.1508
14.2608
14.3669
14.4707
14.5744
14.6802
14.7907
14.909
15.0387
15.1841
15.3505
15.5445
15.774
16.0494
16.3832
16.7919
17.2965
17.9241
18.7104
19.7023
20.9622
22.5723
24.6405
27.3039
30.7245
35.0647
40.4176
46.6694
0.494111
1.47935
2.45578
3.41779
4.36008
5.27786
6.16688
7.02349
7.84472
8.62826
9.37247
10.0763
10.7392
11.3614
11.9432
12.4856
12.9897
13.457
13.8891
14.2879
14.6551
14.9928
15.3029
15.5874
15.8482
16.0872
16.3065
16.5077
16.6927
16.8634
17.0214
17.1686
17.3067
17.4377
17.5635
17.6862
17.8081
17.9319
18.0605
18.1973
18.3464
18.5127
18.7019
18.9213
19.1796
19.4876
19.8589
20.3105
20.8636
21.5452
22.3897
23.4403
24.7515
26.3909
28.4397
30.9904
34.1353
37.9424
42.4091
47.3993
0.590709
1.76845
2.9353
4.08431
5.20903
6.30352
7.36261
8.38197
9.35801
10.288
11.1701
12.0032
12.7868
13.521
14.2068
14.8452
15.4377
15.9862
16.4929
16.9598
17.3893
17.7839
18.1457
18.4774
18.7811
19.0592
19.3139
19.5474
19.7618
19.9592
20.1417
20.3112
20.4699
20.6198
20.7632
20.9024
21.04
21.1787
21.3219
21.4732
21.637
21.8183
22.0232
22.2593
22.5354
22.8626
23.2544
23.7274
24.302
25.0036
25.863
26.9177
28.2126
29.8
31.7373
34.0827
36.884
40.1606
43.8772
47.9183
0.690969
2.06843
3.43266
4.77516
6.08815
7.36453
8.59812
9.78377
10.9173
11.9957
13.0169
13.9796
14.8836
15.7293
16.5178
17.2506
17.9297
18.5574
19.1363
19.6691
20.1586
20.6076
21.0189
21.3953
21.7396
22.0545
22.3425
22.6062
22.8479
23.07
23.2748
23.4647
23.6418
23.8085
23.9671
24.1203
24.2706
24.4212
24.5753
24.7367
24.91
25.1002
25.3135
25.5572
25.8402
26.173
26.5687
27.0426
27.6136
28.3042
29.1409
30.1549
31.3814
32.8591
34.6268
36.7191
39.1574
41.9386
45.021
48.3147
0.795693
2.38168
3.95168
5.49555
7.00391
8.46833
9.88159
11.2377
12.5318
13.7607
14.922
16.0147
17.0388
17.9948
18.8844
19.7097
20.473
21.1774
21.8259
22.4218
22.9683
23.4689
23.9269
24.3454
24.7277
25.0767
25.3956
25.6869
25.9536
26.1981
26.423
26.6309
26.8241
27.0051
27.1765
27.3409
27.5011
27.6601
27.8213
27.9885
28.166
28.359
28.5733
28.8158
29.095
29.4207
29.8046
30.2608
30.8057
31.4586
32.2416
33.1794
34.2991
35.6281
37.1917
39.0094
41.0881
43.4155
45.9534
48.6342
0.905793
2.71092
4.49682
6.25143
7.96356
9.62331
11.2222
12.7534
14.2117
15.5932
16.8958
18.1186
19.2619
20.3268
21.3155
22.2306
23.0754
23.8533
24.5681
25.2237
25.824
26.3729
26.8743
27.3317
27.7489
28.1292
28.476
28.7924
29.0814
29.3458
29.5883
29.8117
30.0185
30.2114
30.3929
30.5657
30.7327
30.8968
31.0613
31.2299
31.4067
31.5965
31.8047
32.0379
32.3034
32.6101
32.9683
33.3903
33.8899
34.4829
35.1873
36.0222
37.0075
38.1624
39.5028
41.0387
42.77
44.6821
46.743
48.9027
1.02237
3.05933
5.0733
7.04978
8.9756
10.8391
12.6306
14.3422
15.9682
17.5046
18.9495
20.3021
21.5633
22.7351
23.8201
24.822
25.7446
26.5923
27.3696
28.081
28.7312
29.3245
29.8655
30.3583
30.807
31.2153
31.5869
31.9253
32.2337
32.5152
32.7728
33.0091
33.227
33.429
33.618
33.7964
33.9671
34.133
34.2972
34.4631
34.6344
34.8156
35.0114
35.2275
35.4705
35.7479
36.0684
36.4422
36.8805
37.396
38.0026
38.7146
39.5465
40.5111
41.6183
42.8727
44.271
45.7998
47.4338
49.1366
1.1467
3.43076
5.68722
7.89881
10.0499
12.127
14.1188
16.0166
17.8142
19.5077
21.0953
22.5769
23.9542
25.23
26.408
27.4926
28.4888
29.4017
30.2369
30.9995
31.695
32.3285
32.9049
33.429
33.9053
34.338
34.7311
35.0882
35.413
35.7087
35.9783
36.2249
36.4512
36.6598
36.8535
37.0348
37.2064
37.371
37.5314
37.6908
37.8524
38.02
38.1977
38.3903
38.6032
38.8426
39.1153
39.4295
39.7938
40.218
40.7124
41.2872
41.9527
42.7172
43.5867
44.5629
45.6417
46.8123
48.0558
49.3465
1.28035
3.8298
6.34599
8.80831
11.1983
13.5001
15.7009
17.7912
19.7644
21.6167
23.347
24.9562
26.4468
27.8228
29.0892
30.2516
31.3161
32.289
33.1766
33.9852
34.7209
35.3895
35.9967
36.5476
37.0473
37.5004
37.9111
38.2836
38.6214
38.9282
39.207
39.461
39.693
39.9055
40.1014
40.2829
40.4526
40.6131
40.7667
40.9162
41.0644
41.2142
41.3692
41.5329
41.7095
41.9038
42.1209
42.3666
42.6473
42.9699
43.3416
43.7693
44.2598
44.8183
45.4483
46.1503
46.9208
47.7518
48.6305
49.54
1.42523
4.26207
7.05864
9.79018
12.4348
14.9741
17.3936
19.6829
21.8354
23.8478
25.7199
27.4539
29.0538
30.5252
31.8744
33.1085
34.2351
35.2616
36.1954
37.0438
37.8138
38.512
39.1446
39.7175
40.2359
40.7051
41.1295
41.5135
41.861
42.1756
42.4606
42.7192
42.9541
43.168
43.3635
43.5428
43.7082
43.862
44.0062
44.143
44.2746
44.4034
44.5319
44.6625
44.7982
44.9422
45.0978
45.2687
45.459
45.6729
45.9147
46.1887
46.4988
46.848
47.2381
47.6693
48.1393
48.6436
49.1747
49.7229
1.58375
4.73457
7.83629
10.859
13.7766
16.5678
19.2164
21.7114
24.0464
26.2191
28.2309
30.0857
31.7895
33.3497
34.7746
36.0731
37.2542
38.3268
39.2995
40.1809
40.9786
41.7001
42.3524
42.9417
43.4739
43.9544
44.3883
44.7799
45.1334
45.4525
45.7406
46.0009
46.2362
46.449
46.6417
46.8166
46.9755
47.1204
47.2529
47.3749
47.4878
47.5931
47.6923
47.7871
47.8788
47.9689
48.0593
48.1514
48.247
48.3478
48.4556
48.5721
48.6987
48.8366
48.9868
49.1493
49.3237
49.5085
49.7016
49.8999
1.75894
5.2562
8.69297
12.0329
15.2448
18.3041
21.1929
23.8999
26.4196
28.7514
30.899
32.8686
34.6688
36.3095
37.8013
39.1551
40.3818
41.4918
42.4952
43.4015
44.2195
44.9575
45.623
46.2229
46.7635
47.2506
47.6893
48.0844
48.4402
48.7604
49.0485
49.3077
49.5407
49.75
49.9379
50.1062
50.2568
50.3911
50.5104
50.6159
50.7084
50.7887
50.8573
50.9146
50.9607
50.9956
51.019
51.0306
51.0298
51.0158
50.9879
50.9452
50.8872
50.8131
50.7231
50.6175
50.4976
50.3652
50.2232
50.0751
1.95468
5.83832
9.64653
13.3347
16.8656
20.2109
23.3513
26.2757
28.9805
31.4681
33.7449
35.8208
37.7076
39.4182
40.966
42.3643
43.626
44.7633
45.7879
46.7104
47.5406
48.2875
48.9593
49.5635
50.1067
50.5951
51.034
51.4284
51.7825
52.1004
52.3854
52.6407
52.869
53.0726
53.2535
53.4136
53.5543
53.6767
53.7817
53.8698
53.9413
53.9961
54.0337
54.0534
54.054
54.0337
53.9907
53.9223
53.8257
53.6977
53.5349
53.3339
53.0916
52.8057
52.475
52.1002
51.6839
51.2315
50.751
50.2524
2.17617
6.49585
10.7201
14.7937
18.672
22.3227
25.7254
28.871
31.7589
34.3954
36.7917
38.9621
40.9225
42.6897
44.2802
45.71
46.9945
48.1477
49.1827
50.1115
50.9448
51.6925
52.3632
52.965
53.5048
53.989
54.4232
54.8125
55.1611
55.4732
55.752
56.0007
56.2218
56.4177
56.5901
56.7405
56.8701
56.9798
57.0698
57.1403
57.1908
57.2205
57.228
57.2113
57.1679
57.0947
56.9877
56.8422
56.6531
56.4145
56.1201
55.7638
55.3396
54.8429
54.271
53.6242
52.9063
52.126
51.2967
50.4358
2.43037
7.24879
11.9444
16.448
20.706
24.6823
28.3569
31.724
34.7885
37.5628
40.0644
42.3133
44.3308
46.1379
47.755
49.2012
50.4943
51.6503
52.6839
53.6081
54.4348
55.1744
55.8362
56.4285
56.9586
57.433
57.8575
58.2372
58.5764
58.8792
59.1488
59.3883
59.6001
59.7863
59.9485
60.0881
60.2059
60.3024
60.3775
60.4308
60.4612
60.4672
60.4464
60.3959
60.3118
60.1895
60.023
59.8058
59.53
59.187
58.7674
58.2614
57.6601
56.9554
56.1421
55.2191
54.1911
53.0696
51.8739
50.6302
2.72682
8.12449
13.3608
18.3479
23.0219
27.3435
31.2958
34.8796
38.1082
41.003
43.5898
45.896
47.9493
49.776
51.4006
52.8456
54.1311
55.2754
56.2944
57.2024
58.0119
58.7341
59.3787
59.9541
60.468
60.9269
61.3366
61.7023
62.0282
62.3183
62.5758
62.8035
63.0039
63.1788
63.3297
63.4576
63.5631
63.6464
63.707
63.7441
63.7561
63.7406
63.6945
63.6141
63.494
63.3283
63.1092
62.828
62.4742
62.0361
61.5008
60.8546
60.0839
59.1764
58.1228
56.9192
55.5694
54.0875
52.4991
50.8411
3.07923
9.16154
15.0263
20.5611
25.69
30.3739
34.6032
38.3904
41.7618
44.7512
47.3956
49.7317
51.7945
53.6162
55.2259
56.6493
57.9092
59.0256
60.0158
60.8951
61.6764
62.3715
62.9902
63.5413
64.0324
64.47
64.8599
65.2071
65.5158
65.7899
66.0325
66.2461
66.4332
66.5953
66.7337
66.8494
66.9425
67.013
67.0601
67.0826
67.0783
67.0444
66.9772
66.8718
66.722
66.5203
66.2576
65.9227
65.5027
64.9825
64.3452
63.5723
62.6445
61.5434
60.2535
58.7654
57.0798
55.2118
53.1938
51.0762
3.50783
10.4161
17.022
23.1799
28.8033
33.8588
38.3527
42.317
45.7973
48.8445
51.5097
53.8406
55.8807
57.6685
59.2374
60.6165
61.831
62.9021
63.8483
64.6856
65.4273
66.0853
66.6695
67.1887
67.6503
68.0608
68.4259
68.7503
69.0382
69.2931
69.518
69.7155
69.8874
70.0355
70.1606
70.2636
70.3445
70.4029
70.4379
70.4477
70.4301
70.3816
70.2981
70.1738
70.0018
69.7735
69.4781
69.1026
68.6314
68.046
67.3252
66.4448
65.3784
64.0992
62.5824
60.809
58.7727
56.4861
53.988
51.3464
4.04385
11.973
19.4657
26.3334
32.4846
37.9053
42.6318
46.7275
50.2658
53.3199
55.958
58.2403
60.2193
61.9395
63.4386
64.7485
65.8959
66.9034
67.7899
68.5715
69.262
69.8727
70.4138
70.8935
71.3192
71.6971
72.0325
72.33
72.5935
72.8262
73.0311
73.2103
73.3656
73.4985
73.6098
73.6999
73.769
73.8163
73.8407
73.8404
73.8126
73.7539
73.6596
73.5235
73.3381
73.0938
72.7787
72.3781
71.8742
71.2451
70.4649
69.5032
68.3251
66.8928
65.1677
63.1157
60.7159
57.9719
54.9257
51.6676
4.73839
13.9664
22.5343
30.2033
36.8964
42.6458
47.5418
51.6955
55.2184
58.2114
60.7619
62.9434
64.8167
66.4316
67.8291
69.043
70.1009
71.0257
71.8363
72.5488
73.1763
73.73
74.2194
74.6524
75.036
75.3759
75.6771
75.9438
76.1795
76.3873
76.5698
76.7289
76.8663
76.983
77.08
77.1574
77.2152
77.2525
77.2683
77.2604
77.2262
77.1619
77.0628
76.9225
76.7332
76.4848
76.1647
75.7571
75.2421
74.5952
73.7862
72.778
71.5262
69.9792
68.0797
65.7703
63.0032
59.7598
56.0753
52.066
5.6817
16.6198
26.5018
35.0493
42.2518
48.2398
53.1939
57.2944
60.7007
63.5453
65.9349
67.9548
69.6723
71.141
72.4033
73.4934
74.4389
75.262
75.981
76.611
77.1644
77.6515
78.0813
78.4608
78.7965
79.0934
79.3561
79.5884
79.7934
79.9738
80.1319
80.2693
80.3875
80.4874
80.5697
80.6346
80.6817
80.7104
80.7194
80.7067
80.6697
80.6047
80.507
80.3706
80.1875
79.9476
79.6384
79.2433
78.7419
78.1075
77.3066
76.2963
75.0224
73.418
71.4019
68.8823
65.7671
61.9886
57.5498
52.587
7.05032
20.3295
31.8036
41.2404
48.8217
54.8678
59.6996
63.5876
66.7449
69.3341
71.4777
73.2685
74.7769
76.0567
77.1497
78.0886
78.8993
79.6025
80.2148
80.7498
81.2186
81.6306
81.9933
82.3132
82.5956
82.8452
83.0657
83.2604
83.432
83.5827
83.7146
83.8289
83.9269
84.0095
84.0769
84.1295
84.1667
84.188
84.1922
84.1774
84.1412
84.0802
83.9902
83.8653
83.6984
83.4799
83.1977
82.8361
82.3746
81.7865
81.0365
80.0781
78.8494
77.2684
75.2275
72.59
69.1941
64.8778
59.5482
53.3193
9.2404
25.8442
39.1428
49.2871
56.9265
62.7103
67.1489
70.6114
73.3573
75.5684
77.3734
78.8647
80.11
81.1591
82.0501
82.812
83.4672
84.0338
84.5258
84.9547
85.3298
85.6589
85.9482
86.203
86.4277
86.626
86.801
86.9554
87.0913
87.2106
87.3147
87.4049
87.4819
87.5466
87.5991
87.6395
87.6677
87.6828
87.6839
87.6695
87.6374
87.5848
87.508
87.4021
87.2608
87.0758
86.8365
86.5288
86.134
85.6272
84.9748
84.1302
83.0286
81.5786
79.6497
77.0561
73.5417
68.7803
62.4458
54.4611
13.3074
34.6643
49.6363
59.8388
66.887
71.8979
75.5744
78.3519
80.5044
82.2087
83.5827
84.7071
85.6391
86.4198
87.0797
87.6419
88.1239
88.5396
88.8999
89.2134
89.4871
89.727
89.9375
90.1228
90.2861
90.43
90.557
90.6689
90.7673
90.8536
90.9288
90.9939
91.0494
91.0958
91.1333
91.162
91.1815
91.1915
91.1912
91.1792
91.1541
91.1136
91.055
90.9744
90.8669
90.7262
90.5438
90.3085
90.0054
89.6138
89.1052
88.4392
87.5564
86.3679
84.7364
82.4432
79.1362
74.2559
66.9936
56.5407
22.6324
49.8691
64.8993
73.5447
78.8849
82.4199
84.8988
86.7175
88.0997
89.1794
90.0415
90.742
91.3194
91.8012
92.207
92.5519
92.8469
93.1009
93.3207
93.5117
93.6784
93.8242
93.9522
94.0647
94.1638
94.2511
94.3281
94.3959
94.4555
94.5077
94.5532
94.5924
94.6259
94.6539
94.6764
94.6935
94.705
94.7107
94.7099
94.7021
94.6861
94.6606
94.6239
94.5734
94.5062
94.4182
94.3039
94.1562
93.9652
93.7173
93.3932
92.9649
92.3897
91.6003
90.4847
88.8442
86.304
82.1134
74.7321
61.2486
49.9854
77.2803
86.5471
90.5559
92.6878
93.9982
94.8833
95.5196
95.9974
96.3677
96.6618
96.8999
97.0955
97.2584
97.3954
97.5117
97.611
97.6965
97.7703
97.8345
97.8905
97.9394
97.9823
98.0201
98.0533
98.0825
98.1083
98.131
98.151
98.1685
98.1837
98.1968
98.208
98.2173
98.2248
98.2305
98.2343
98.2362
98.2358
98.2331
98.2276
98.2189
98.2064
98.1892
98.1664
98.1364
98.0975
98.0471
97.9818
97.8969
97.7855
97.6376
97.4373
97.159
96.7577
96.1448
95.1221
93.1616
88.5728
74.9702
)
;

boundaryField
{
    xmin
    {
        type            fixedValue;
        value           uniform 0;
    }
    xmax
    {
        type            fixedValue;
        value           uniform 50;
    }
    ymin
    {
        type            fixedValue;
        value           uniform 0;
    }
    ymax
    {
        type            fixedValue;
        value           uniform 100;
    }
    zmin
    {
        type            empty;
    }
    zmax
    {
        type            empty;
    }
}


// ************************************************************************* //
