/*--------------------------------*- C++ -*----------------------------------*\
  =========                 |
  \\      /  F ield         | OpenFOAM: The Open Source CFD Toolbox
   \\    /   O peration     | Website:  https://openfoam.org
    \\  /    A nd           | Version:  6
     \\/     M anipulation  |
\*---------------------------------------------------------------------------*/
FoamFile
{
    version     2.0;
    format      ascii;
    class       volScalarField;
    location    "16";
    object      T;
}
// * * * * * * * * * * * * * * * * * * * * * * * * * * * * * * * * * * * * * //

dimensions      [0 0 0 1 0 0 0];

internalField   nonuniform List<scalar> 
5000
(
0.63125
0.631121
0.630863
0.630476
0.62996
0.629315
0.628543
0.627644
0.626619
0.625469
0.624195
0.622799
0.621281
0.619644
0.617889
0.616017
0.614031
0.611932
0.609722
0.607405
0.604981
0.602454
0.599825
0.597098
0.594276
0.59136
0.588354
0.58526
0.582083
0.578825
0.575488
0.572078
0.568596
0.565046
0.561432
0.557758
0.554026
0.550242
0.546407
0.542527
0.538605
0.534644
0.53065
0.526625
0.522574
0.518501
0.514409
0.510304
0.506188
0.502066
0.497942
0.49382
0.489704
0.485598
0.481507
0.477433
0.473382
0.469358
0.465363
0.461403
0.457481
0.453601
0.449766
0.445981
0.44225
0.438576
0.434962
0.431412
0.42793
0.42452
0.421183
0.417925
0.414748
0.411654
0.408648
0.405733
0.40291
0.400183
0.397554
0.395027
0.392604
0.390286
0.388077
0.385978
0.383992
0.38212
0.380365
0.378727
0.37721
0.375813
0.37454
0.37339
0.372365
0.371466
0.370694
0.37005
0.369533
0.369146
0.368888
0.368758
0.631251
0.631122
0.630864
0.630477
0.62996
0.629316
0.628544
0.627645
0.62662
0.62547
0.624196
0.6228
0.621282
0.619645
0.617889
0.616018
0.614031
0.611933
0.609723
0.607405
0.604982
0.602454
0.599826
0.597099
0.594276
0.59136
0.588354
0.585261
0.582084
0.578825
0.575489
0.572078
0.568596
0.565046
0.561433
0.557758
0.554027
0.550242
0.546407
0.542527
0.538605
0.534645
0.53065
0.526625
0.522574
0.518501
0.514409
0.510304
0.506188
0.502066
0.497942
0.49382
0.489704
0.485598
0.481506
0.477433
0.473382
0.469357
0.465363
0.461403
0.45748
0.4536
0.449766
0.445981
0.44225
0.438575
0.434961
0.431412
0.42793
0.424519
0.421183
0.417924
0.414747
0.411654
0.408648
0.405732
0.402909
0.400182
0.397554
0.395027
0.392603
0.390285
0.388076
0.385977
0.383991
0.382119
0.380364
0.378727
0.377209
0.375813
0.374539
0.373389
0.372364
0.371465
0.370693
0.370049
0.369533
0.369145
0.368887
0.368758
0.631251
0.631123
0.630865
0.630477
0.629961
0.629317
0.628545
0.627646
0.626621
0.625471
0.624197
0.6228
0.621283
0.619646
0.61789
0.616018
0.614032
0.611933
0.609724
0.607406
0.604982
0.602455
0.599827
0.5971
0.594277
0.591361
0.588355
0.585261
0.582084
0.578826
0.575489
0.572078
0.568596
0.565047
0.561433
0.557758
0.554027
0.550242
0.546408
0.542527
0.538605
0.534645
0.53065
0.526626
0.522574
0.518501
0.51441
0.510304
0.506188
0.502066
0.497942
0.49382
0.489704
0.485598
0.481506
0.477433
0.473382
0.469357
0.465363
0.461402
0.45748
0.4536
0.449766
0.445981
0.442249
0.438575
0.434961
0.431411
0.427929
0.424519
0.421182
0.417924
0.414747
0.411653
0.408647
0.405731
0.402909
0.400182
0.397553
0.395026
0.392602
0.390285
0.388075
0.385977
0.38399
0.382119
0.380363
0.378726
0.377208
0.375812
0.374538
0.373388
0.372363
0.371465
0.370692
0.370048
0.369532
0.369145
0.368886
0.368758
0.631252
0.631123
0.630865
0.630478
0.629962
0.629317
0.628545
0.627646
0.626621
0.625471
0.624198
0.622801
0.621283
0.619646
0.617891
0.616019
0.614033
0.611934
0.609724
0.607407
0.604983
0.602456
0.599827
0.5971
0.594277
0.591361
0.588355
0.585262
0.582084
0.578826
0.57549
0.572079
0.568597
0.565047
0.561433
0.557759
0.554027
0.550242
0.546408
0.542528
0.538605
0.534645
0.53065
0.526626
0.522575
0.518501
0.51441
0.510304
0.506188
0.502066
0.497942
0.49382
0.489704
0.485598
0.481506
0.477433
0.473382
0.469357
0.465362
0.461402
0.45748
0.4536
0.449765
0.44598
0.442249
0.438574
0.434961
0.431411
0.427929
0.424518
0.421182
0.417923
0.414746
0.411653
0.408647
0.405731
0.402908
0.400181
0.397553
0.395025
0.392602
0.390284
0.388075
0.385976
0.38399
0.382118
0.380363
0.378725
0.377208
0.375811
0.374538
0.373388
0.372363
0.371464
0.370692
0.370047
0.369531
0.369144
0.368886
0.368757
0.631253
0.631124
0.630866
0.630479
0.629962
0.629318
0.628546
0.627647
0.626622
0.625472
0.624198
0.622802
0.621284
0.619647
0.617891
0.616019
0.614033
0.611934
0.609725
0.607407
0.604983
0.602456
0.599828
0.597101
0.594278
0.591362
0.588356
0.585262
0.582085
0.578826
0.57549
0.572079
0.568597
0.565047
0.561433
0.557759
0.554027
0.550243
0.546408
0.542528
0.538605
0.534645
0.530651
0.526626
0.522575
0.518501
0.51441
0.510304
0.506188
0.502066
0.497942
0.49382
0.489704
0.485598
0.481506
0.477433
0.473382
0.469357
0.465362
0.461402
0.45748
0.453599
0.449765
0.44598
0.442249
0.438574
0.43496
0.431411
0.427929
0.424518
0.421182
0.417923
0.414746
0.411652
0.408646
0.40573
0.402908
0.400181
0.397552
0.395025
0.392601
0.390284
0.388074
0.385975
0.383989
0.382117
0.380362
0.378725
0.377207
0.375811
0.374537
0.373387
0.372362
0.371463
0.370691
0.370047
0.369531
0.369143
0.368885
0.368757
0.631253
0.631125
0.630867
0.630479
0.629963
0.629319
0.628546
0.627647
0.626623
0.625473
0.624199
0.622802
0.621285
0.619647
0.617892
0.61602
0.614034
0.611935
0.609725
0.607408
0.604984
0.602457
0.599828
0.597101
0.594278
0.591362
0.588356
0.585263
0.582085
0.578827
0.57549
0.572079
0.568597
0.565048
0.561434
0.557759
0.554028
0.550243
0.546408
0.542528
0.538606
0.534645
0.530651
0.526626
0.522575
0.518501
0.51441
0.510304
0.506188
0.502066
0.497942
0.493819
0.489703
0.485598
0.481506
0.477433
0.473381
0.469357
0.465362
0.461402
0.457479
0.453599
0.449765
0.44598
0.442248
0.438574
0.43496
0.43141
0.427928
0.424517
0.421181
0.417923
0.414745
0.411652
0.408646
0.40573
0.402907
0.40018
0.397552
0.395024
0.392601
0.390283
0.388074
0.385975
0.383989
0.382117
0.380361
0.378724
0.377207
0.37581
0.374536
0.373387
0.372362
0.371463
0.370691
0.370046
0.36953
0.369143
0.368885
0.368756
0.631254
0.631125
0.630867
0.63048
0.629964
0.629319
0.628547
0.627648
0.626623
0.625473
0.624199
0.622803
0.621285
0.619648
0.617892
0.616021
0.614034
0.611935
0.609726
0.607408
0.604984
0.602457
0.599828
0.597101
0.594278
0.591363
0.588356
0.585263
0.582085
0.578827
0.575491
0.57208
0.568598
0.565048
0.561434
0.557759
0.554028
0.550243
0.546408
0.542528
0.538606
0.534645
0.530651
0.526626
0.522575
0.518501
0.51441
0.510304
0.506188
0.502066
0.497942
0.493819
0.489703
0.485597
0.481506
0.477432
0.473381
0.469356
0.465362
0.461402
0.457479
0.453599
0.449764
0.44598
0.442248
0.438573
0.43496
0.43141
0.427928
0.424517
0.421181
0.417922
0.414745
0.411651
0.408645
0.405729
0.402907
0.40018
0.397551
0.395024
0.3926
0.390283
0.388073
0.385974
0.383988
0.382116
0.380361
0.378724
0.377206
0.37581
0.374536
0.373386
0.372361
0.371462
0.37069
0.370046
0.36953
0.369142
0.368884
0.368756
0.631255
0.631126
0.630868
0.63048
0.629964
0.62932
0.628548
0.627649
0.626624
0.625474
0.6242
0.622803
0.621286
0.619648
0.617893
0.616021
0.614035
0.611936
0.609726
0.607409
0.604985
0.602457
0.599829
0.597102
0.594279
0.591363
0.588357
0.585263
0.582086
0.578827
0.575491
0.57208
0.568598
0.565048
0.561434
0.55776
0.554028
0.550243
0.546409
0.542528
0.538606
0.534645
0.530651
0.526626
0.522575
0.518501
0.51441
0.510304
0.506188
0.502066
0.497942
0.493819
0.489703
0.485597
0.481506
0.477432
0.473381
0.469356
0.465362
0.461401
0.457479
0.453599
0.449764
0.445979
0.442248
0.438573
0.434959
0.43141
0.427928
0.424517
0.42118
0.417922
0.414744
0.411651
0.408645
0.405729
0.402906
0.400179
0.397551
0.395023
0.3926
0.390282
0.388073
0.385974
0.383988
0.382116
0.38036
0.378723
0.377206
0.375809
0.374535
0.373385
0.372361
0.371462
0.37069
0.370045
0.369529
0.369142
0.368884
0.368755
0.631255
0.631126
0.630868
0.630481
0.629965
0.62932
0.628548
0.627649
0.626624
0.625474
0.6242
0.622804
0.621286
0.619649
0.617893
0.616021
0.614035
0.611936
0.609727
0.607409
0.604985
0.602458
0.599829
0.597102
0.594279
0.591363
0.588357
0.585264
0.582086
0.578828
0.575491
0.57208
0.568598
0.565048
0.561434
0.55776
0.554028
0.550243
0.546409
0.542528
0.538606
0.534646
0.530651
0.526626
0.522575
0.518501
0.51441
0.510304
0.506188
0.502066
0.497941
0.493819
0.489703
0.485597
0.481506
0.477432
0.473381
0.469356
0.465362
0.461401
0.457479
0.453599
0.449764
0.445979
0.442247
0.438573
0.434959
0.431409
0.427927
0.424516
0.42118
0.417922
0.414744
0.411651
0.408645
0.405729
0.402906
0.400179
0.39755
0.395023
0.392599
0.390282
0.388072
0.385973
0.383987
0.382115
0.38036
0.378723
0.377205
0.375809
0.374535
0.373385
0.37236
0.371461
0.370689
0.370045
0.369529
0.369141
0.368883
0.368755
0.631256
0.631127
0.630869
0.630481
0.629965
0.629321
0.628549
0.62765
0.626625
0.625475
0.624201
0.622804
0.621287
0.619649
0.617894
0.616022
0.614035
0.611936
0.609727
0.607409
0.604986
0.602458
0.59983
0.597102
0.59428
0.591364
0.588357
0.585264
0.582086
0.578828
0.575491
0.57208
0.568598
0.565049
0.561435
0.55776
0.554028
0.550243
0.546409
0.542528
0.538606
0.534646
0.530651
0.526626
0.522575
0.518501
0.51441
0.510304
0.506188
0.502066
0.497941
0.493819
0.489703
0.485597
0.481506
0.477432
0.473381
0.469356
0.465361
0.461401
0.457479
0.453598
0.449764
0.445979
0.442247
0.438573
0.434959
0.431409
0.427927
0.424516
0.42118
0.417921
0.414744
0.41165
0.408644
0.405728
0.402905
0.400178
0.39755
0.395023
0.392599
0.390281
0.388072
0.385973
0.383987
0.382115
0.380359
0.378722
0.377205
0.375808
0.374534
0.373385
0.37236
0.371461
0.370689
0.370044
0.369528
0.369141
0.368883
0.368754
0.631256
0.631127
0.630869
0.630482
0.629966
0.629321
0.628549
0.62765
0.626625
0.625475
0.624201
0.622805
0.621287
0.61965
0.617894
0.616022
0.614036
0.611937
0.609727
0.60741
0.604986
0.602458
0.59983
0.597103
0.59428
0.591364
0.588358
0.585264
0.582087
0.578828
0.575492
0.572081
0.568599
0.565049
0.561435
0.55776
0.554029
0.550244
0.546409
0.542529
0.538606
0.534646
0.530651
0.526626
0.522575
0.518502
0.51441
0.510304
0.506188
0.502066
0.497941
0.493819
0.489703
0.485597
0.481505
0.477432
0.473381
0.469356
0.465361
0.461401
0.457478
0.453598
0.449764
0.445979
0.442247
0.438572
0.434958
0.431409
0.427927
0.424516
0.421179
0.417921
0.414743
0.41165
0.408644
0.405728
0.402905
0.400178
0.39755
0.395022
0.392599
0.390281
0.388071
0.385973
0.383986
0.382115
0.380359
0.378722
0.377204
0.375808
0.374534
0.373384
0.372359
0.37146
0.370688
0.370044
0.369528
0.369141
0.368882
0.368754
0.631256
0.631128
0.63087
0.630482
0.629966
0.629322
0.628549
0.62765
0.626625
0.625475
0.624201
0.622805
0.621287
0.61965
0.617894
0.616023
0.614036
0.611937
0.609728
0.60741
0.604986
0.602459
0.59983
0.597103
0.59428
0.591364
0.588358
0.585264
0.582087
0.578828
0.575492
0.572081
0.568599
0.565049
0.561435
0.55776
0.554029
0.550244
0.546409
0.542529
0.538606
0.534646
0.530651
0.526626
0.522575
0.518502
0.51441
0.510304
0.506188
0.502065
0.497941
0.493819
0.489703
0.485597
0.481505
0.477432
0.473381
0.469356
0.465361
0.461401
0.457478
0.453598
0.449763
0.445978
0.442247
0.438572
0.434958
0.431409
0.427926
0.424516
0.421179
0.417921
0.414743
0.41165
0.408644
0.405728
0.402905
0.400178
0.397549
0.395022
0.392598
0.390281
0.388071
0.385972
0.383986
0.382114
0.380359
0.378721
0.377204
0.375807
0.374534
0.373384
0.372359
0.37146
0.370688
0.370044
0.369527
0.36914
0.368882
0.368753
0.631257
0.631128
0.63087
0.630483
0.629966
0.629322
0.62855
0.627651
0.626626
0.625476
0.624202
0.622805
0.621288
0.61965
0.617895
0.616023
0.614036
0.611938
0.609728
0.60741
0.604986
0.602459
0.59983
0.597103
0.59428
0.591364
0.588358
0.585265
0.582087
0.578828
0.575492
0.572081
0.568599
0.565049
0.561435
0.557761
0.554029
0.550244
0.546409
0.542529
0.538606
0.534646
0.530651
0.526626
0.522575
0.518502
0.51441
0.510304
0.506188
0.502065
0.497941
0.493819
0.489703
0.485597
0.481505
0.477432
0.473381
0.469356
0.465361
0.461401
0.457478
0.453598
0.449763
0.445978
0.442247
0.438572
0.434958
0.431408
0.427926
0.424515
0.421179
0.41792
0.414743
0.41165
0.408643
0.405727
0.402905
0.400177
0.397549
0.395022
0.392598
0.39028
0.388071
0.385972
0.383986
0.382114
0.380358
0.378721
0.377203
0.375807
0.374533
0.373383
0.372358
0.37146
0.370688
0.370043
0.369527
0.36914
0.368882
0.368753
0.631257
0.631128
0.63087
0.630483
0.629967
0.629322
0.62855
0.627651
0.626626
0.625476
0.624202
0.622806
0.621288
0.619651
0.617895
0.616023
0.614037
0.611938
0.609728
0.607411
0.604987
0.602459
0.599831
0.597104
0.594281
0.591365
0.588358
0.585265
0.582087
0.578829
0.575492
0.572081
0.568599
0.565049
0.561435
0.557761
0.554029
0.550244
0.546409
0.542529
0.538607
0.534646
0.530651
0.526626
0.522575
0.518502
0.51441
0.510304
0.506188
0.502065
0.497941
0.493819
0.489703
0.485597
0.481505
0.477432
0.47338
0.469356
0.465361
0.4614
0.457478
0.453598
0.449763
0.445978
0.442246
0.438572
0.434958
0.431408
0.427926
0.424515
0.421179
0.41792
0.414743
0.411649
0.408643
0.405727
0.402904
0.400177
0.397549
0.395021
0.392598
0.39028
0.388071
0.385972
0.383985
0.382113
0.380358
0.378721
0.377203
0.375807
0.374533
0.373383
0.372358
0.371459
0.370687
0.370043
0.369527
0.36914
0.368881
0.368753
0.631258
0.631129
0.630871
0.630483
0.629967
0.629323
0.62855
0.627651
0.626626
0.625476
0.624202
0.622806
0.621288
0.619651
0.617895
0.616023
0.614037
0.611938
0.609729
0.607411
0.604987
0.60246
0.599831
0.597104
0.594281
0.591365
0.588359
0.585265
0.582087
0.578829
0.575492
0.572081
0.568599
0.565049
0.561435
0.557761
0.554029
0.550244
0.546409
0.542529
0.538607
0.534646
0.530651
0.526626
0.522575
0.518502
0.51441
0.510304
0.506188
0.502065
0.497941
0.493819
0.489703
0.485597
0.481505
0.477432
0.47338
0.469355
0.465361
0.4614
0.457478
0.453598
0.449763
0.445978
0.442246
0.438572
0.434958
0.431408
0.427926
0.424515
0.421179
0.41792
0.414742
0.411649
0.408643
0.405727
0.402904
0.400177
0.397548
0.395021
0.392597
0.39028
0.38807
0.385971
0.383985
0.382113
0.380358
0.37872
0.377203
0.375806
0.374533
0.373383
0.372358
0.371459
0.370687
0.370043
0.369527
0.369139
0.368881
0.368753
0.631258
0.631129
0.630871
0.630483
0.629967
0.629323
0.628551
0.627652
0.626627
0.625477
0.624203
0.622806
0.621289
0.619651
0.617896
0.616024
0.614037
0.611938
0.609729
0.607411
0.604987
0.60246
0.599831
0.597104
0.594281
0.591365
0.588359
0.585265
0.582088
0.578829
0.575493
0.572082
0.568599
0.56505
0.561436
0.557761
0.554029
0.550244
0.546409
0.542529
0.538607
0.534646
0.530651
0.526626
0.522575
0.518502
0.51441
0.510304
0.506188
0.502065
0.497941
0.493819
0.489703
0.485597
0.481505
0.477432
0.47338
0.469355
0.465361
0.4614
0.457478
0.453597
0.449763
0.445978
0.442246
0.438572
0.434958
0.431408
0.427926
0.424515
0.421178
0.41792
0.414742
0.411649
0.408643
0.405727
0.402904
0.400177
0.397548
0.395021
0.392597
0.390279
0.38807
0.385971
0.383985
0.382113
0.380358
0.37872
0.377203
0.375806
0.374532
0.373383
0.372358
0.371459
0.370687
0.370042
0.369526
0.369139
0.368881
0.368752
0.631258
0.631129
0.630871
0.630484
0.629968
0.629323
0.628551
0.627652
0.626627
0.625477
0.624203
0.622806
0.621289
0.619651
0.617896
0.616024
0.614037
0.611938
0.609729
0.607411
0.604987
0.60246
0.599831
0.597104
0.594281
0.591365
0.588359
0.585265
0.582088
0.578829
0.575493
0.572082
0.5686
0.56505
0.561436
0.557761
0.554029
0.550244
0.54641
0.542529
0.538607
0.534646
0.530651
0.526626
0.522575
0.518502
0.51441
0.510304
0.506188
0.502065
0.497941
0.493819
0.489703
0.485597
0.481505
0.477431
0.47338
0.469355
0.465361
0.4614
0.457478
0.453597
0.449763
0.445978
0.442246
0.438571
0.434957
0.431408
0.427926
0.424515
0.421178
0.41792
0.414742
0.411649
0.408642
0.405727
0.402904
0.400177
0.397548
0.395021
0.392597
0.390279
0.38807
0.385971
0.383985
0.382113
0.380357
0.37872
0.377202
0.375806
0.374532
0.373382
0.372357
0.371459
0.370686
0.370042
0.369526
0.369139
0.368881
0.368752
0.631258
0.63113
0.630871
0.630484
0.629968
0.629323
0.628551
0.627652
0.626627
0.625477
0.624203
0.622807
0.621289
0.619652
0.617896
0.616024
0.614038
0.611939
0.609729
0.607411
0.604987
0.60246
0.599831
0.597104
0.594281
0.591365
0.588359
0.585266
0.582088
0.578829
0.575493
0.572082
0.5686
0.56505
0.561436
0.557761
0.554029
0.550244
0.54641
0.542529
0.538607
0.534646
0.530651
0.526626
0.522575
0.518502
0.51441
0.510304
0.506188
0.502065
0.497941
0.493819
0.489703
0.485597
0.481505
0.477431
0.47338
0.469355
0.465361
0.4614
0.457478
0.453597
0.449763
0.445978
0.442246
0.438571
0.434957
0.431407
0.427925
0.424514
0.421178
0.417919
0.414742
0.411649
0.408642
0.405726
0.402903
0.400176
0.397548
0.39502
0.392597
0.390279
0.38807
0.385971
0.383984
0.382113
0.380357
0.37872
0.377202
0.375806
0.374532
0.373382
0.372357
0.371458
0.370686
0.370042
0.369526
0.369139
0.368881
0.368752
0.631258
0.63113
0.630871
0.630484
0.629968
0.629323
0.628551
0.627652
0.626627
0.625477
0.624203
0.622807
0.621289
0.619652
0.617896
0.616024
0.614038
0.611939
0.609729
0.607411
0.604988
0.60246
0.599832
0.597104
0.594281
0.591365
0.588359
0.585266
0.582088
0.578829
0.575493
0.572082
0.5686
0.56505
0.561436
0.557761
0.554029
0.550244
0.54641
0.542529
0.538607
0.534646
0.530651
0.526626
0.522575
0.518502
0.51441
0.510304
0.506188
0.502065
0.497941
0.493819
0.489703
0.485597
0.481505
0.477431
0.47338
0.469355
0.46536
0.4614
0.457478
0.453597
0.449763
0.445977
0.442246
0.438571
0.434957
0.431407
0.427925
0.424514
0.421178
0.417919
0.414742
0.411648
0.408642
0.405726
0.402903
0.400176
0.397548
0.39502
0.392597
0.390279
0.388069
0.385971
0.383984
0.382112
0.380357
0.37872
0.377202
0.375806
0.374532
0.373382
0.372357
0.371458
0.370686
0.370042
0.369526
0.369138
0.36888
0.368752
0.631259
0.63113
0.630872
0.630484
0.629968
0.629324
0.628551
0.627652
0.626627
0.625477
0.624203
0.622807
0.621289
0.619652
0.617896
0.616024
0.614038
0.611939
0.609729
0.607412
0.604988
0.60246
0.599832
0.597104
0.594281
0.591365
0.588359
0.585266
0.582088
0.578829
0.575493
0.572082
0.5686
0.56505
0.561436
0.557761
0.554029
0.550244
0.54641
0.542529
0.538607
0.534646
0.530651
0.526626
0.522575
0.518502
0.51441
0.510304
0.506188
0.502065
0.497941
0.493819
0.489703
0.485597
0.481505
0.477431
0.47338
0.469355
0.46536
0.4614
0.457477
0.453597
0.449762
0.445977
0.442246
0.438571
0.434957
0.431407
0.427925
0.424514
0.421178
0.417919
0.414742
0.411648
0.408642
0.405726
0.402903
0.400176
0.397548
0.39502
0.392596
0.390279
0.388069
0.38597
0.383984
0.382112
0.380357
0.37872
0.377202
0.375806
0.374532
0.373382
0.372357
0.371458
0.370686
0.370042
0.369526
0.369138
0.36888
0.368752
0.631259
0.63113
0.630872
0.630484
0.629968
0.629324
0.628552
0.627652
0.626627
0.625477
0.624204
0.622807
0.621289
0.619652
0.617896
0.616024
0.614038
0.611939
0.609729
0.607412
0.604988
0.60246
0.599832
0.597105
0.594282
0.591365
0.588359
0.585266
0.582088
0.578829
0.575493
0.572082
0.5686
0.56505
0.561436
0.557761
0.554029
0.550244
0.54641
0.542529
0.538607
0.534646
0.530651
0.526626
0.522575
0.518502
0.51441
0.510304
0.506188
0.502065
0.497941
0.493819
0.489703
0.485597
0.481505
0.477431
0.47338
0.469355
0.46536
0.4614
0.457477
0.453597
0.449762
0.445977
0.442246
0.438571
0.434957
0.431407
0.427925
0.424514
0.421178
0.417919
0.414742
0.411648
0.408642
0.405726
0.402903
0.400176
0.397547
0.39502
0.392596
0.390279
0.388069
0.38597
0.383984
0.382112
0.380357
0.378719
0.377202
0.375805
0.374532
0.373382
0.372357
0.371458
0.370686
0.370042
0.369525
0.369138
0.36888
0.368751
0.631259
0.63113
0.630872
0.630484
0.629968
0.629324
0.628552
0.627653
0.626627
0.625477
0.624204
0.622807
0.621289
0.619652
0.617896
0.616024
0.614038
0.611939
0.60973
0.607412
0.604988
0.60246
0.599832
0.597105
0.594282
0.591365
0.588359
0.585266
0.582088
0.578829
0.575493
0.572082
0.5686
0.56505
0.561436
0.557761
0.554029
0.550244
0.54641
0.542529
0.538607
0.534646
0.530651
0.526626
0.522575
0.518502
0.51441
0.510304
0.506188
0.502065
0.497941
0.493819
0.489703
0.485597
0.481505
0.477431
0.47338
0.469355
0.46536
0.4614
0.457477
0.453597
0.449762
0.445977
0.442246
0.438571
0.434957
0.431407
0.427925
0.424514
0.421178
0.417919
0.414742
0.411648
0.408642
0.405726
0.402903
0.400176
0.397547
0.39502
0.392596
0.390279
0.388069
0.38597
0.383984
0.382112
0.380357
0.378719
0.377202
0.375805
0.374532
0.373382
0.372357
0.371458
0.370686
0.370041
0.369525
0.369138
0.36888
0.368751
0.631259
0.63113
0.630872
0.630484
0.629968
0.629324
0.628552
0.627653
0.626628
0.625478
0.624204
0.622807
0.621289
0.619652
0.617896
0.616024
0.614038
0.611939
0.60973
0.607412
0.604988
0.60246
0.599832
0.597105
0.594282
0.591366
0.588359
0.585266
0.582088
0.578829
0.575493
0.572082
0.5686
0.56505
0.561436
0.557761
0.554029
0.550244
0.54641
0.542529
0.538607
0.534646
0.530651
0.526626
0.522575
0.518502
0.51441
0.510304
0.506188
0.502065
0.497941
0.493819
0.489703
0.485597
0.481505
0.477431
0.47338
0.469355
0.46536
0.4614
0.457477
0.453597
0.449762
0.445977
0.442246
0.438571
0.434957
0.431407
0.427925
0.424514
0.421178
0.417919
0.414741
0.411648
0.408642
0.405726
0.402903
0.400176
0.397547
0.39502
0.392596
0.390279
0.388069
0.38597
0.383984
0.382112
0.380357
0.378719
0.377202
0.375805
0.374532
0.373382
0.372357
0.371458
0.370686
0.370041
0.369525
0.369138
0.36888
0.368751
0.631259
0.63113
0.630872
0.630484
0.629968
0.629324
0.628552
0.627653
0.626628
0.625478
0.624204
0.622807
0.621289
0.619652
0.617896
0.616024
0.614038
0.611939
0.60973
0.607412
0.604988
0.60246
0.599832
0.597105
0.594282
0.591365
0.588359
0.585266
0.582088
0.578829
0.575493
0.572082
0.5686
0.56505
0.561436
0.557761
0.554029
0.550244
0.54641
0.542529
0.538607
0.534646
0.530651
0.526626
0.522575
0.518502
0.51441
0.510304
0.506188
0.502065
0.497941
0.493819
0.489703
0.485597
0.481505
0.477431
0.47338
0.469355
0.46536
0.4614
0.457477
0.453597
0.449762
0.445977
0.442246
0.438571
0.434957
0.431407
0.427925
0.424514
0.421178
0.417919
0.414741
0.411648
0.408642
0.405726
0.402903
0.400176
0.397547
0.39502
0.392596
0.390279
0.388069
0.38597
0.383984
0.382112
0.380357
0.378719
0.377202
0.375805
0.374532
0.373382
0.372357
0.371458
0.370686
0.370041
0.369525
0.369138
0.36888
0.368751
0.631259
0.63113
0.630872
0.630484
0.629968
0.629324
0.628552
0.627653
0.626628
0.625477
0.624204
0.622807
0.621289
0.619652
0.617896
0.616024
0.614038
0.611939
0.609729
0.607412
0.604988
0.60246
0.599832
0.597105
0.594282
0.591365
0.588359
0.585266
0.582088
0.578829
0.575493
0.572082
0.5686
0.56505
0.561436
0.557761
0.554029
0.550244
0.54641
0.542529
0.538607
0.534646
0.530651
0.526626
0.522575
0.518502
0.51441
0.510304
0.506187
0.502065
0.497941
0.493819
0.489703
0.485596
0.481505
0.477431
0.47338
0.469355
0.46536
0.4614
0.457477
0.453597
0.449762
0.445977
0.442246
0.438571
0.434957
0.431407
0.427925
0.424514
0.421178
0.417919
0.414741
0.411648
0.408642
0.405726
0.402903
0.400176
0.397547
0.39502
0.392596
0.390279
0.388069
0.38597
0.383984
0.382112
0.380357
0.378719
0.377202
0.375805
0.374532
0.373382
0.372357
0.371458
0.370686
0.370042
0.369525
0.369138
0.36888
0.368751
0.631259
0.63113
0.630872
0.630484
0.629968
0.629324
0.628552
0.627652
0.626627
0.625477
0.624204
0.622807
0.621289
0.619652
0.617896
0.616024
0.614038
0.611939
0.609729
0.607412
0.604988
0.60246
0.599832
0.597104
0.594281
0.591365
0.588359
0.585266
0.582088
0.578829
0.575493
0.572082
0.5686
0.56505
0.561436
0.557761
0.554029
0.550244
0.54641
0.542529
0.538607
0.534646
0.530651
0.526626
0.522575
0.518502
0.51441
0.510304
0.506187
0.502065
0.497941
0.493819
0.489703
0.485596
0.481505
0.477431
0.47338
0.469355
0.46536
0.4614
0.457477
0.453597
0.449762
0.445977
0.442246
0.438571
0.434957
0.431407
0.427925
0.424514
0.421178
0.417919
0.414741
0.411648
0.408642
0.405726
0.402903
0.400176
0.397547
0.39502
0.392596
0.390279
0.388069
0.38597
0.383984
0.382112
0.380357
0.378719
0.377202
0.375805
0.374532
0.373382
0.372357
0.371458
0.370686
0.370042
0.369526
0.369138
0.36888
0.368752
0.631259
0.63113
0.630872
0.630484
0.629968
0.629324
0.628551
0.627652
0.626627
0.625477
0.624203
0.622807
0.621289
0.619652
0.617896
0.616024
0.614038
0.611939
0.609729
0.607412
0.604988
0.60246
0.599832
0.597104
0.594281
0.591365
0.588359
0.585266
0.582088
0.578829
0.575493
0.572082
0.5686
0.56505
0.561436
0.557761
0.554029
0.550244
0.546409
0.542529
0.538607
0.534646
0.530651
0.526626
0.522575
0.518501
0.51441
0.510304
0.506187
0.502065
0.497941
0.493819
0.489702
0.485596
0.481505
0.477431
0.47338
0.469355
0.46536
0.4614
0.457477
0.453597
0.449762
0.445977
0.442246
0.438571
0.434957
0.431407
0.427925
0.424514
0.421178
0.417919
0.414742
0.411648
0.408642
0.405726
0.402903
0.400176
0.397547
0.39502
0.392596
0.390279
0.388069
0.38597
0.383984
0.382112
0.380357
0.378719
0.377202
0.375806
0.374532
0.373382
0.372357
0.371458
0.370686
0.370042
0.369526
0.369138
0.36888
0.368752
0.631258
0.63113
0.630872
0.630484
0.629968
0.629323
0.628551
0.627652
0.626627
0.625477
0.624203
0.622807
0.621289
0.619652
0.617896
0.616024
0.614038
0.611939
0.609729
0.607411
0.604988
0.60246
0.599831
0.597104
0.594281
0.591365
0.588359
0.585265
0.582088
0.578829
0.575493
0.572082
0.5686
0.56505
0.561436
0.557761
0.554029
0.550244
0.546409
0.542529
0.538607
0.534646
0.530651
0.526626
0.522575
0.518501
0.51441
0.510304
0.506187
0.502065
0.497941
0.493819
0.489702
0.485596
0.481505
0.477431
0.47338
0.469355
0.46536
0.4614
0.457477
0.453597
0.449762
0.445977
0.442246
0.438571
0.434957
0.431407
0.427925
0.424514
0.421178
0.417919
0.414742
0.411648
0.408642
0.405726
0.402903
0.400176
0.397548
0.39502
0.392596
0.390279
0.388069
0.38597
0.383984
0.382112
0.380357
0.37872
0.377202
0.375806
0.374532
0.373382
0.372357
0.371458
0.370686
0.370042
0.369526
0.369138
0.36888
0.368752
0.631258
0.63113
0.630871
0.630484
0.629968
0.629323
0.628551
0.627652
0.626627
0.625477
0.624203
0.622807
0.621289
0.619651
0.617896
0.616024
0.614038
0.611939
0.609729
0.607411
0.604987
0.60246
0.599831
0.597104
0.594281
0.591365
0.588359
0.585265
0.582088
0.578829
0.575493
0.572082
0.568599
0.56505
0.561435
0.557761
0.554029
0.550244
0.546409
0.542529
0.538606
0.534646
0.530651
0.526626
0.522575
0.518501
0.51441
0.510304
0.506187
0.502065
0.497941
0.493819
0.489702
0.485596
0.481505
0.477431
0.47338
0.469355
0.46536
0.4614
0.457477
0.453597
0.449762
0.445977
0.442246
0.438571
0.434957
0.431407
0.427925
0.424514
0.421178
0.417919
0.414742
0.411648
0.408642
0.405726
0.402903
0.400176
0.397548
0.39502
0.392597
0.390279
0.38807
0.385971
0.383984
0.382112
0.380357
0.37872
0.377202
0.375806
0.374532
0.373382
0.372357
0.371458
0.370686
0.370042
0.369526
0.369139
0.368881
0.368752
0.631258
0.631129
0.630871
0.630484
0.629968
0.629323
0.628551
0.627652
0.626627
0.625477
0.624203
0.622806
0.621289
0.619651
0.617896
0.616024
0.614037
0.611938
0.609729
0.607411
0.604987
0.60246
0.599831
0.597104
0.594281
0.591365
0.588359
0.585265
0.582088
0.578829
0.575492
0.572081
0.568599
0.565049
0.561435
0.557761
0.554029
0.550244
0.546409
0.542529
0.538606
0.534646
0.530651
0.526626
0.522575
0.518501
0.51441
0.510304
0.506187
0.502065
0.497941
0.493819
0.489702
0.485596
0.481505
0.477431
0.47338
0.469355
0.46536
0.4614
0.457477
0.453597
0.449762
0.445977
0.442246
0.438571
0.434957
0.431407
0.427925
0.424514
0.421178
0.417919
0.414742
0.411648
0.408642
0.405726
0.402903
0.400176
0.397548
0.39502
0.392597
0.390279
0.38807
0.385971
0.383984
0.382113
0.380357
0.37872
0.377202
0.375806
0.374532
0.373382
0.372357
0.371459
0.370687
0.370042
0.369526
0.369139
0.368881
0.368752
0.631258
0.631129
0.630871
0.630484
0.629967
0.629323
0.628551
0.627652
0.626627
0.625477
0.624203
0.622806
0.621289
0.619651
0.617896
0.616024
0.614037
0.611938
0.609729
0.607411
0.604987
0.60246
0.599831
0.597104
0.594281
0.591365
0.588358
0.585265
0.582087
0.578829
0.575492
0.572081
0.568599
0.565049
0.561435
0.557761
0.554029
0.550244
0.546409
0.542529
0.538606
0.534646
0.530651
0.526626
0.522575
0.518501
0.514409
0.510303
0.506187
0.502065
0.497941
0.493819
0.489702
0.485596
0.481505
0.477431
0.47338
0.469355
0.46536
0.4614
0.457477
0.453597
0.449762
0.445977
0.442246
0.438571
0.434957
0.431407
0.427925
0.424514
0.421178
0.417919
0.414742
0.411649
0.408642
0.405726
0.402904
0.400177
0.397548
0.395021
0.392597
0.390279
0.38807
0.385971
0.383985
0.382113
0.380357
0.37872
0.377203
0.375806
0.374532
0.373383
0.372358
0.371459
0.370687
0.370042
0.369526
0.369139
0.368881
0.368752
0.631258
0.631129
0.630871
0.630483
0.629967
0.629323
0.62855
0.627651
0.626626
0.625476
0.624202
0.622806
0.621288
0.619651
0.617895
0.616023
0.614037
0.611938
0.609728
0.607411
0.604987
0.602459
0.599831
0.597104
0.594281
0.591365
0.588358
0.585265
0.582087
0.578829
0.575492
0.572081
0.568599
0.565049
0.561435
0.55776
0.554029
0.550244
0.546409
0.542529
0.538606
0.534646
0.530651
0.526626
0.522575
0.518501
0.514409
0.510303
0.506187
0.502065
0.497941
0.493819
0.489702
0.485596
0.481505
0.477431
0.47338
0.469355
0.46536
0.4614
0.457478
0.453597
0.449763
0.445978
0.442246
0.438571
0.434957
0.431408
0.427925
0.424515
0.421178
0.41792
0.414742
0.411649
0.408643
0.405727
0.402904
0.400177
0.397548
0.395021
0.392597
0.390279
0.38807
0.385971
0.383985
0.382113
0.380358
0.37872
0.377203
0.375806
0.374533
0.373383
0.372358
0.371459
0.370687
0.370043
0.369527
0.369139
0.368881
0.368753
0.631257
0.631129
0.63087
0.630483
0.629967
0.629322
0.62855
0.627651
0.626626
0.625476
0.624202
0.622806
0.621288
0.619651
0.617895
0.616023
0.614037
0.611938
0.609728
0.60741
0.604987
0.602459
0.59983
0.597103
0.59428
0.591364
0.588358
0.585265
0.582087
0.578828
0.575492
0.572081
0.568599
0.565049
0.561435
0.55776
0.554029
0.550244
0.546409
0.542528
0.538606
0.534646
0.530651
0.526626
0.522575
0.518501
0.514409
0.510303
0.506187
0.502065
0.497941
0.493819
0.489702
0.485596
0.481505
0.477431
0.47338
0.469355
0.46536
0.4614
0.457478
0.453597
0.449763
0.445978
0.442246
0.438571
0.434957
0.431408
0.427926
0.424515
0.421178
0.41792
0.414742
0.411649
0.408643
0.405727
0.402904
0.400177
0.397548
0.395021
0.392597
0.39028
0.38807
0.385971
0.383985
0.382113
0.380358
0.378721
0.377203
0.375807
0.374533
0.373383
0.372358
0.371459
0.370687
0.370043
0.369527
0.36914
0.368882
0.368753