/*--------------------------------*- C++ -*----------------------------------*\
  =========                 |
  \\      /  F ield         | OpenFOAM: The Open Source CFD Toolbox
   \\    /   O peration     | Website:  https://openfoam.org
    \\  /    A nd           | Version:  6
     \\/     M anipulation  |
\*---------------------------------------------------------------------------*/
FoamFile
{
    version     2.0;
    format      ascii;
    class       volScalarField;
    location    "0";
    object      mag(U);
}
// * * * * * * * * * * * * * * * * * * * * * * * * * * * * * * * * * * * * * //

dimensions      [0 1 -1 0 0 0 0];

internalField   nonuniform List<scalar> 
5200
(
1.4199
1.31722
1.2451
1.19343
1.15571
1.12766
1.10648
1.09021
1.07756
1.06763
1.5181
1.40559
1.32438
1.2645
1.21947
1.185
1.15816
1.13695
1.11994
1.10615
1.60701
1.48573
1.39648
1.32937
1.27789
1.23772
1.20585
1.18022
1.15931
1.14204
1.68608
1.55709
1.46082
1.3874
1.33032
1.28517
1.24891
1.21939
1.19507
1.17478
1.75481
1.61918
1.5169
1.43809
1.3762
1.3268
1.28678
1.25394
1.22667
1.20379
1.81275
1.67157
1.56428
1.48098
1.4151
1.36216
1.31901
1.28339
1.25366
1.2286
1.85955
1.71391
1.60261
1.51573
1.44667
1.39089
1.34522
1.30738
1.27568
1.24886
1.89492
1.74593
1.6316
1.54204
1.47058
1.41269
1.36514
1.32562
1.29243
1.26429
1.91863
1.76739
1.65106
1.5597
1.48664
1.42734
1.37853
1.3379
1.30372
1.2747
1.93053
1.77816
1.66083
1.56856
1.49472
1.4347
1.38528
1.34408
1.3094
1.27993
0.12183
0.257418
0.370892
0.461516
0.534491
0.593995
0.643114
0.684121
0.718707
0.748156
0.24603
0.323052
0.412085
0.490563
0.556465
0.611399
0.657346
0.696031
0.728846
0.756877
0.388302
0.423815
0.483242
0.543396
0.597502
0.644399
0.684596
0.719002
0.748533
0.773991
0.532317
0.538682
0.571941
0.612804
0.653126
0.690019
0.722765
0.751477
0.776554
0.798459
0.674543
0.658264
0.669541
0.692402
0.718769
0.744938
0.769367
0.791534
0.811382
0.82905
0.813321
0.778134
0.770741
0.777425
0.790539
0.80605
0.821917
0.837163
0.851363
0.864378
0.947484
0.895812
0.872236
0.864498
0.865373
0.870709
0.87817
0.886456
0.894863
0.903029
1.07606
1.00967
0.971826
0.951217
0.940925
0.936765
0.936205
0.937714
0.940368
0.943622
1.19817
1.11849
1.06793
1.0358
1.01539
1.00249
0.994437
0.989512
0.986594
0.9849
1.31303
1.22128
1.15935
1.1169
1.08737
1.06651
1.05157
1.04073
1.03274
1.02678
0.782552
0.820666
0.849868
0.872831
0.891207
0.906133
0.918413
0.92863
0.937214
0.944486
0.950698
0.956036
0.960652
0.964666
0.968172
0.971248
0.973955
0.976348
0.978467
0.980349
0.982024
0.983516
0.984847
0.986036
0.987097
0.988044
0.988889
0.989641
0.990308
0.990899
0.991418
0.991873
0.992266
0.992602
0.992885
0.993116
0.993299
0.993435
0.993524
0.993569
0.788914
0.824625
0.852482
0.874621
0.892469
0.907047
0.919089
0.929139
0.937605
0.944792
0.95094
0.956231
0.960812
0.964798
0.968283
0.971342
0.974037
0.976419
0.978531
0.980405
0.982075
0.983562
0.984889
0.986075
0.987134
0.988078
0.988921
0.989671
0.990337
0.990926
0.991445
0.991898
0.992291
0.992627
0.992909
0.99314
0.993322
0.993457
0.993547
0.993591
0.801666
0.832757
0.857928
0.878387
0.895147
0.908997
0.92054
0.93024
0.938455
0.945459
0.95147
0.956661
0.961164
0.96509
0.968529
0.971551
0.974217
0.976575
0.978667
0.980528
0.982183
0.98366
0.98498
0.986157
0.98721
0.988149
0.988988
0.989734
0.990397
0.990984
0.991499
0.991951
0.992341
0.992676
0.992956
0.993186
0.993368
0.993503
0.993591
0.993636
0.820091
0.844674
0.865983
0.883989
0.899143
0.911912
0.922711
0.931889
0.939727
0.946458
0.952266
0.957302
0.96169
0.965526
0.968895
0.971863
0.974485
0.976809
0.978872
0.980709
0.982347
0.983808
0.985113
0.98628
0.987323
0.988256
0.989087
0.989829
0.990486
0.991068
0.991581
0.99203
0.992417
0.992749
0.993028
0.993256
0.993437
0.99357
0.993658
0.993702
0.843453
0.860069
0.876517
0.891371
0.904434
0.915786
0.925601
0.934083
0.941422
0.947787
0.953324
0.958157
0.962389
0.966106
0.969382
0.972276
0.974841
0.977117
0.979144
0.98095
0.982562
0.984003
0.985291
0.986444
0.987475
0.988396
0.989219
0.989953
0.990604
0.991181
0.991688
0.992133
0.992518
0.992847
0.993122
0.993349
0.993527
0.99366
0.993747
0.99379
0.870883
0.878562
0.889363
0.90046
0.910989
0.9206
0.929201
0.93682
0.943536
0.949444
0.954643
0.959221
0.963259
0.966827
0.969986
0.972789
0.975281
0.977501
0.97948
0.981248
0.982829
0.984244
0.985511
0.986645
0.987661
0.988571
0.989382
0.990106
0.990749
0.991319
0.991822
0.99226
0.992641
0.992967
0.99324
0.993463
0.99364
0.993771
0.993857
0.993899
0.90143
0.899723
0.90432
0.911164
0.918765
0.926338
0.933502
0.940095
0.946066
0.951428
0.95622
0.960492
0.964298
0.967687
0.970707
0.973401
0.975806
0.977956
0.97988
0.981602
0.983145
0.98453
0.985771
0.986885
0.987883
0.988776
0.989575
0.990288
0.990922
0.991484
0.991979
0.992412
0.992787
0.993109
0.993379
0.993599
0.993773
0.993903
0.993988
0.994029
0.934104
0.923083
0.92116
0.92338
0.927718
0.932981
0.938498
0.943903
0.94901
0.953736
0.958054
0.961969
0.965502
0.968683
0.97154
0.974107
0.976411
0.978481
0.980339
0.98201
0.98351
0.984859
0.986071
0.987159
0.988136
0.989013
0.989797
0.990497
0.99112
0.991673
0.992159
0.992587
0.992956
0.993272
0.993538
0.993756
0.993927
0.994054
0.994138
0.994179
0.96824
0.948582
0.94002
0.937307
0.938043
0.940699
0.944327
0.948357
0.952455
0.956435
0.960194
0.963689
0.966902
0.969835
0.972502
0.974919
0.977105
0.979082
0.980865
0.982473
0.983924
0.985231
0.98641
0.98747
0.988423
0.989279
0.990046
0.990733
0.991343
0.991885
0.992363
0.992782
0.993145
0.993456
0.993717
0.993932
0.9941
0.994225
0.994308
0.994349
1.00579
0.978047
0.962148
0.953761
0.950257
0.949808
0.951178
0.953564
0.956463
0.959557
0.962662
0.965664
0.968504
0.971152
0.973599
0.975844
0.977896
0.979764
0.98146
0.983
0.984393
0.985654
0.986793
0.98782
0.988746
0.989579
0.990327
0.990996
0.991592
0.992122
0.992589
0.992999
0.993355
0.99366
0.993916
0.994126
0.994292
0.994415
0.994496
0.994537
1.03519
1.00383
0.983823
0.971553
0.964641
0.961345
0.960414
0.960973
0.962432
0.964397
0.966611
0.968913
0.971198
0.973403
0.975494
0.977452
0.979271
0.980948
0.982488
0.983897
0.985182
0.986352
0.987415
0.988378
0.989249
0.990035
0.990743
0.991377
0.991945
0.99245
0.992896
0.993287
0.993628
0.99392
0.994165
0.994366
0.994526
0.994644
0.994723
0.994762
1.05039
1.02119
1.00073
0.98701
0.978271
0.973103
0.970425
0.969437
0.969566
0.970407
0.971684
0.973204
0.97484
0.976507
0.978151
0.979736
0.981241
0.982656
0.983975
0.985197
0.986323
0.987359
0.988306
0.989171
0.989957
0.99067
0.991315
0.991896
0.992416
0.992881
0.993293
0.993655
0.99397
0.994241
0.994469
0.994657
0.994806
0.994916
0.994989
0.995026
1.0607
1.03397
1.01405
0.999804
0.98999
0.983531
0.979538
0.977313
0.97633
0.976199
0.976639
0.977447
0.97848
0.979638
0.98085
0.982072
0.98327
0.984425
0.985522
0.986556
0.987522
0.988418
0.989248
0.99001
0.990708
0.991347
0.991925
0.992449
0.992921
0.993344
0.99372
0.994051
0.99434
0.994589
0.994798
0.994972
0.995108
0.995209
0.995277
0.995311
1.06721
1.04313
1.02434
1.0102
0.999888
0.99262
0.987691
0.984518
0.982637
0.981689
0.981403
0.981577
0.98206
0.982745
0.983553
0.984428
0.985329
0.98623
0.98711
0.987956
0.988761
0.98952
0.990229
0.990888
0.991497
0.992057
0.992569
0.993034
0.993456
0.993835
0.994173
0.994472
0.994733
0.994958
0.995149
0.995307
0.995431
0.995524
0.995585
0.995616
1.07091
1.04949
1.03212
1.0185
1.00812
1.00043
0.99488
0.991015
0.988433
0.986818
0.985918
0.985541
0.985535
0.985791
0.986225
0.986775
0.987395
0.988051
0.98872
0.989384
0.99003
0.990652
0.991242
0.991796
0.992316
0.992796
0.99324
0.993647
0.994016
0.994349
0.994649
0.994914
0.995147
0.995349
0.99552
0.995661
0.995773
0.995857
0.995912
0.99594
1.07261
1.05372
1.03789
1.02504
1.01487
1.00704
1.00114
0.996799
0.993695
0.991553
0.990147
0.989299
0.988868
0.988741
0.988836
0.989086
0.989444
0.98987
0.990337
0.990824
0.991317
0.991804
0.992276
0.992728
0.993157
0.993559
0.993934
0.994281
0.994597
0.994886
0.995145
0.995377
0.995581
0.995758
0.995908
0.996033
0.996132
0.996206
0.996255
0.996279
1.07291
1.05633
1.04204
1.03008
1.02034
1.01258
1.00653
1.00189
0.998419
0.995875
0.994065
0.992828
0.992032
0.991571
0.991362
0.991341
0.991456
0.991666
0.991944
0.992264
0.992608
0.992964
0.993323
0.993674
0.994014
0.994339
0.994645
0.994931
0.995197
0.995439
0.995659
0.995856
0.99603
0.996182
0.996313
0.996419
0.996505
0.99657
0.996612
0.996634
1.07224
1.05773
1.0449
1.03391
1.02471
1.01718
1.01112
1.00633
1.00262
0.999785
0.997662
0.996108
0.995007
0.994259
0.993784
0.993521
0.993415
0.993428
0.993528
0.993691
0.993895
0.994127
0.994374
0.994628
0.994882
0.99513
0.995369
0.995596
0.995809
0.996006
0.996186
0.996348
0.996494
0.996621
0.996729
0.99682
0.996892
0.996947
0.996982
0.997001
1.07094
1.05825
1.04679
1.03674
1.02815
1.02094
1.01499
1.01018
1.00633
1.0033
1.00094
0.999135
0.997783
0.996793
0.996088
0.995611
0.995308
0.995142
0.99508
0.995095
0.995167
0.995281
0.995423
0.995584
0.995754
0.995927
0.9961
0.996269
0.996431
0.996583
0.996723
0.996852
0.996967
0.997069
0.997157
0.997231
0.99729
0.997334
0.997363
0.997378
1.06921
1.05812
1.04792
1.03879
1.03082
1.02399
1.01824
1.01347
1.00957
1.00642
1.00389
1.00191
1.00036
0.999164
0.998265
0.997601
0.997125
0.996798
0.996587
0.996468
0.996418
0.996421
0.996463
0.996533
0.996624
0.996726
0.996835
0.996947
0.997058
0.997166
0.997268
0.997362
0.997449
0.997526
0.997593
0.99765
0.997696
0.99773
0.997753
0.997765
1.06724
1.05754
1.04847
1.0402
1.03286
1.02644
1.02093
1.01629
1.01239
1.00919
1.00655
1.00443
1.00272
1.00138
1.00031
0.999486
0.998857
0.998387
0.998043
0.9978
0.997638
0.997538
0.997488
0.997474
0.997487
0.997521
0.997569
0.997626
0.997689
0.997754
0.997817
0.99788
0.997937
0.99799
0.998036
0.998077
0.998109
0.998134
0.99815
0.998158
1.06514
1.05664
1.04858
1.04111
1.03436
1.02837
1.02315
1.01866
1.01483
1.01161
1.00893
1.00672
1.00489
1.00341
1.00221
1.00126
1.0005
0.999904
0.999442
0.999088
0.998823
0.998629
0.99849
0.998397
0.998339
0.998308
0.998298
0.998302
0.998318
0.998341
0.998368
0.998398
0.998428
0.998457
0.998483
0.998507
0.998527
0.998542
0.998551
0.998557
1.06299
1.05554
1.04835
1.04162
1.03545
1.02989
1.02496
1.02065
1.01693
1.01375
1.01103
1.00876
1.00686
1.00529
1.00398
1.00292
1.00205
1.00135
1.00078
1.00032
0.999967
0.999687
0.999469
0.999301
0.999177
0.999084
0.999018
0.998972
0.998944
0.998927
0.998918
0.998917
0.99892
0.998925
0.998932
0.99894
0.998947
0.998953
0.998956
0.998959
1.06086
1.0543
1.04791
1.04183
1.03619
1.03104
1.02642
1.02231
1.01872
1.01559
1.0129
1.0106
1.00865
1.007
1.00562
1.00447
1.0035
1.00271
1.00205
1.00151
1.00107
1.00071
1.00041
1.00018
0.999995
0.999845
0.999726
0.999634
0.999563
0.999508
0.999465
0.999434
0.999411
0.999394
0.999382
0.999374
0.999369
0.999365
0.999363
0.999362
1.05878
1.05299
1.04729
1.04181
1.03666
1.03191
1.02757
1.02369
1.02023
1.01719
1.01455
1.01225
1.01027
1.00857
1.00713
1.0059
1.00487
1.00398
1.00325
1.00264
1.00212
1.00169
1.00133
1.00104
1.00079
1.00059
1.00042
1.00028
1.00017
1.00008
1.00001
0.999946
0.999898
0.999859
0.999829
0.999806
0.999789
0.999777
0.999768
0.999765
1.05677
1.05165
1.04656
1.04162
1.03691
1.03252
1.02849
1.02481
1.02152
1.01857
1.01599
1.0137
1.01172
1.01
1.00851
1.00723
1.00613
1.00519
1.00439
1.0037
1.00312
1.00263
1.00222
1.00187
1.00156
1.00131
1.0011
1.00092
1.00077
1.00064
1.00053
1.00045
1.00038
1.00032
1.00027
1.00023
1.0002
1.00018
1.00017
1.00017
1.05486
1.05031
1.04575
1.04129
1.037
1.03295
1.02919
1.02573
1.02259
1.01977
1.01724
1.015
1.01302
1.01129
1.00977
1.00845
1.00731
1.00631
1.00546
1.00471
1.00407
1.00353
1.00305
1.00265
1.00231
1.00201
1.00176
1.00154
1.00135
1.0012
1.00106
1.00095
1.00086
1.00078
1.00071
1.00066
1.00062
1.00059
1.00057
1.00056
1.05304
1.049
1.04492
1.04087
1.03696
1.03322
1.02972
1.02647
1.02349
1.02078
1.01833
1.01613
1.01419
1.01245
1.01092
1.00958
1.00839
1.00736
1.00645
1.00567
1.00498
1.00438
1.00386
1.00342
1.00302
1.00268
1.00239
1.00214
1.00192
1.00174
1.00157
1.00143
1.00132
1.00123
1.00114
1.00107
1.00103
1.00099
1.00097
1.00095
1.05134
1.04772
1.04405
1.04039
1.03681
1.03337
1.03011
1.02706
1.02423
1.02164
1.01928
1.01714
1.01522
1.01349
1.01197
1.0106
1.0094
1.00832
1.00738
1.00656
1.00583
1.00519
1.00464
1.00414
1.00371
1.00334
1.003
1.00272
1.00247
1.00226
1.00207
1.00191
1.00177
1.00166
1.00156
1.00148
1.00142
1.00138
1.00135
1.00134
1.04973
1.0465
1.04319
1.03987
1.03659
1.03341
1.03038
1.02752
1.02485
1.02237
1.02009
1.01802
1.01614
1.01444
1.01291
1.01154
1.01032
1.00922
1.00825
1.0074
1.00663
1.00595
1.00536
1.00483
1.00436
1.00396
1.00359
1.00327
1.003
1.00276
1.00255
1.00237
1.00222
1.00209
1.00197
1.00188
1.00181
1.00176
1.00173
1.00171
1.04824
1.04534
1.04235
1.03932
1.03631
1.03338
1.03056
1.02787
1.02534
1.02298
1.02081
1.0188
1.01695
1.01528
1.01376
1.01239
1.01116
1.01005
1.00906
1.00817
1.00738
1.00668
1.00605
1.00549
1.00499
1.00454
1.00416
1.00381
1.00351
1.00324
1.00301
1.00281
1.00264
1.0025
1.00237
1.00227
1.00219
1.00214
1.0021
1.00208
1.04685
1.04424
1.04152
1.03876
1.036
1.03328
1.03065
1.02814
1.02575
1.02351
1.02141
1.01947
1.01768
1.01603
1.01453
1.01317
1.01193
1.01082
1.0098
1.00889
1.00808
1.00735
1.00669
1.0061
1.00558
1.00511
1.0047
1.00433
1.004
1.00371
1.00346
1.00324
1.00306
1.00289
1.00276
1.00265
1.00256
1.0025
1.00246
1.00244
1.04557
1.04321
1.04073
1.0382
1.03566
1.03315
1.03069
1.02833
1.02607
1.02393
1.02192
1.02005
1.0183
1.0167
1.01523
1.01387
1.01264
1.01152
1.01049
1.00956
1.00873
1.00797
1.0073
1.00668
1.00613
1.00565
1.0052
1.00481
1.00447
1.00416
1.00389
1.00366
1.00345
1.00327
1.00313
1.00301
1.00292
1.00285
1.0028
1.00278
1.04439
1.04224
1.03997
1.03766
1.03531
1.03297
1.03069
1.02846
1.02633
1.02429
1.02236
1.02055
1.01886
1.0173
1.01585
1.01451
1.01328
1.01215
1.01112
1.01019
1.00934
1.00856
1.00786
1.00723
1.00666
1.00615
1.00569
1.00528
1.0049
1.00458
1.0043
1.00405
1.00383
1.00364
1.00348
1.00336
1.00326
1.00318
1.00313
1.00311
1.04329
1.04134
1.03927
1.03713
1.03496
1.03278
1.03065
1.02855
1.02652
1.02459
1.02274
1.02099
1.01935
1.01782
1.0164
1.01507
1.01385
1.01273
1.0117
1.01076
1.00989
1.0091
1.00839
1.00774
1.00715
1.00662
1.00614
1.00571
1.00532
1.00499
1.00469
1.00442
1.00419
1.00399
1.00382
1.00369
1.00358
1.0035
1.00345
1.00342
1.0423
1.0405
1.03859
1.03662
1.03461
1.03258
1.03057
1.0286
1.02668
1.02482
1.02306
1.02137
1.01978
1.01829
1.01689
1.01559
1.01438
1.01326
1.01223
1.01128
1.0104
1.00961
1.00887
1.00821
1.0076
1.00706
1.00657
1.00612
1.00572
1.00537
1.00505
1.00478
1.00453
1.00432
1.00415
1.004
1.00389
1.00381
1.00375
1.00373
1.04138
1.03973
1.03797
1.03614
1.03427
1.03236
1.03048
1.02861
1.02679
1.02502
1.02332
1.0217
1.02016
1.0187
1.01734
1.01605
1.01485
1.01374
1.01271
1.01175
1.01088
1.01006
1.00933
1.00864
1.00803
1.00747
1.00697
1.0065
1.00609
1.00572
1.0054
1.00511
1.00485
1.00463
1.00445
1.0043
1.00418
1.0041
1.00404
1.00401
1.04055
1.03903
1.0374
1.0357
1.03394
1.03216
1.03038
1.02861
1.02687
1.02518
1.02354
1.02198
1.02048
1.01906
1.01772
1.01646
1.01527
1.01417
1.01314
1.01219
1.0113
1.01049
1.00974
1.00905
1.00842
1.00785
1.00733
1.00686
1.00643
1.00605
1.00572
1.00541
1.00515
1.00493
1.00474
1.00458
1.00446
1.00437
1.00431
1.00428
1.0398
1.03838
1.03686
1.03527
1.03363
1.03195
1.03026
1.02858
1.02692
1.02531
1.02374
1.02222
1.02076
1.01938
1.01806
1.01682
1.01565
1.01456
1.01354
1.01258
1.0117
1.01087
1.01012
1.00942
1.00879
1.0082
1.00767
1.00719
1.00675
1.00636
1.00601
1.0057
1.00543
1.0052
1.005
1.00484
1.00471
1.00462
1.00456
1.00452
1.03912
1.0378
1.03638
1.03488
1.03333
1.03175
1.03015
1.02855
1.02696
1.02541
1.0239
1.02242
1.02101
1.01966
1.01836
1.01714
1.01599
1.0149
1.01388
1.01294
1.01204
1.01122
1.01046
1.00976
1.00911
1.00852
1.00798
1.00749
1.00704
1.00665
1.00628
1.00596
1.00569
1.00545
1.00525
1.00508
1.00495
1.00485
1.00479
1.00476
1.03851
1.03727
1.03594
1.03453
1.03306
1.03155
1.03004
1.02851
1.02699
1.02549
1.02401
1.02259
1.02122
1.0199
1.01864
1.01742
1.01629
1.01521
1.01419
1.01325
1.01236
1.01154
1.01076
1.01006
1.00941
1.00881
1.00826
1.00776
1.00731
1.00689
1.00653
1.00621
1.00592
1.00568
1.00547
1.0053
1.00517
1.00507
1.005
1.00497
1.03797
1.0368
1.03555
1.03421
1.03281
1.03138
1.02993
1.02846
1.027
1.02555
1.02412
1.02274
1.02139
1.0201
1.01886
1.01768
1.01654
1.01548
1.01447
1.01353
1.01265
1.01181
1.01104
1.01033
1.00967
1.00907
1.00851
1.00801
1.00754
1.00713
1.00675
1.00643
1.00614
1.00589
1.00568
1.0055
1.00536
1.00526
1.00519
1.00516
1.0375
1.0364
1.0352
1.03392
1.03259
1.03123
1.02982
1.02841
1.027
1.02559
1.02421
1.02286
1.02154
1.02027
1.01905
1.01789
1.01677
1.01572
1.01471
1.01377
1.01288
1.01206
1.01129
1.01057
1.00991
1.0093
1.00873
1.00822
1.00775
1.00733
1.00696
1.00662
1.00633
1.00607
1.00586
1.00568
1.00554
1.00543
1.00536
1.00533
1.03709
1.03604
1.03489
1.03368
1.0324
1.03108
1.02973
1.02836
1.02699
1.02563
1.02428
1.02296
1.02168
1.02043
1.01923
1.01806
1.01696
1.01591
1.01492
1.01398
1.0131
1.01227
1.0115
1.01078
1.01012
1.00949
1.00893
1.00841
1.00794
1.00751
1.00713
1.00679
1.0065
1.00624
1.00602
1.00584
1.00569
1.00559
1.00552
1.00548
1.03675
1.03574
1.03464
1.03346
1.03223
1.03095
1.02964
1.02831
1.02698
1.02565
1.02433
1.02304
1.02177
1.02055
1.01936
1.01822
1.01713
1.01609
1.0151
1.01416
1.01328
1.01245
1.01167
1.01095
1.01028
1.00966
1.00909
1.00857
1.0081
1.00767
1.00728
1.00694
1.00664
1.00638
1.00616
1.00597
1.00583
1.00572
1.00565
1.00561
1.03646
1.03549
1.03442
1.03329
1.03209
1.03085
1.02957
1.02828
1.02697
1.02567
1.02438
1.02311
1.02186
1.02065
1.01948
1.01835
1.01726
1.01623
1.01524
1.0143
1.01342
1.0126
1.01182
1.0111
1.01043
1.00981
1.00923
1.00871
1.00823
1.0078
1.00741
1.00706
1.00676
1.0065
1.00627
1.00609
1.00594
1.00583
1.00576
1.00572
1.03623
1.03528
1.03424
1.03314
1.03197
1.03077
1.02952
1.02825
1.02697
1.02569
1.02442
1.02316
1.02193
1.02072
1.01956
1.01844
1.01736
1.01633
1.01535
1.01442
1.01354
1.01272
1.01194
1.01122
1.01054
1.00992
1.00935
1.00882
1.00834
1.0079
1.00751
1.00716
1.00686
1.00659
1.00636
1.00618
1.00603
1.00592
1.00584
1.00581
1.03606
1.03513
1.03412
1.03303
1.03189
1.03069
1.02947
1.02822
1.02695
1.02569
1.02443
1.02319
1.02197
1.02078
1.01963
1.01851
1.01744
1.01642
1.01544
1.01451
1.01363
1.01281
1.01203
1.0113
1.01063
1.01001
1.00943
1.0089
1.00842
1.00798
1.00759
1.00724
1.00693
1.00666
1.00643
1.00625
1.0061
1.00598
1.00591
1.00587
1.03595
1.03504
1.03403
1.03296
1.03183
1.03065
1.02944
1.0282
1.02695
1.0257
1.02445
1.02322
1.022
1.02082
1.01967
1.01856
1.01749
1.01647
1.0155
1.01457
1.01369
1.01286
1.01209
1.01136
1.01069
1.01006
1.00948
1.00895
1.00847
1.00803
1.00764
1.00729
1.00698
1.00671
1.00648
1.00629
1.00614
1.00603
1.00595
1.00592
1.0359
1.03499
1.03399
1.03293
1.0318
1.03063
1.02942
1.02819
1.02695
1.0257
1.02446
1.02323
1.02202
1.02084
1.0197
1.01859
1.01752
1.0165
1.01552
1.0146
1.01372
1.01289
1.01212
1.01139
1.01072
1.01009
1.00951
1.00898
1.0085
1.00806
1.00766
1.00731
1.007
1.00673
1.0065
1.00631
1.00616
1.00605
1.00598
1.00594
1.24751
1.24318
1.2346
1.22183
1.20501
1.18431
1.15999
1.13237
1.10187
1.07033
1.21729
1.21408
1.20768
1.19815
1.18558
1.17006
1.15173
1.13071
1.10702
1.0813
1.19259
1.19013
1.18524
1.17794
1.16825
1.15626
1.142
1.12555
1.10698
1.08673
1.17213
1.17022
1.16644
1.16077
1.15324
1.14389
1.13275
1.11985
1.10522
1.08916
1.15501
1.15352
1.15054
1.1461
1.14017
1.13281
1.12402
1.11381
1.10221
1.0894
1.14055
1.13937
1.137
1.13346
1.12876
1.12289
1.11588
1.10775
1.09849
1.08822
1.12823
1.12728
1.12538
1.12253
1.11874
1.11403
1.10839
1.10184
1.09439
1.08609
1.11766
1.11688
1.11533
1.11302
1.10995
1.10611
1.10154
1.09621
1.09016
1.08342
1.10852
1.10788
1.10661
1.10471
1.10219
1.09904
1.09528
1.09093
1.08597
1.08044
1.10057
1.10004
1.09898
1.09741
1.09532
1.09271
1.0896
1.086
1.0819
1.07732
1.09362
1.09317
1.09229
1.09097
1.08922
1.08704
1.08444
1.08142
1.07801
1.07419
1.08751
1.08713
1.08639
1.08527
1.08379
1.08195
1.07975
1.07722
1.07434
1.07113
1.08212
1.08181
1.08116
1.08021
1.07894
1.07737
1.0755
1.07335
1.0709
1.06818
1.07734
1.07707
1.07652
1.0757
1.0746
1.07325
1.07164
1.06979
1.0677
1.06537
1.07309
1.07286
1.07238
1.07166
1.07071
1.06953
1.06814
1.06654
1.06472
1.06271
1.0693
1.06909
1.06868
1.06804
1.06721
1.06619
1.06497
1.06356
1.06198
1.06022
1.06591
1.06572
1.06535
1.0648
1.06407
1.06315
1.06208
1.06083
1.05944
1.0579
1.06287
1.0627
1.06237
1.06188
1.06122
1.0604
1.05945
1.05835
1.05711
1.05573
1.06013
1.05998
1.05968
1.05924
1.05865
1.05792
1.05706
1.05607
1.05497
1.05374
1.05767
1.05754
1.05727
1.05686
1.05633
1.05566
1.05488
1.054
1.053
1.05189
1.05544
1.05532
1.05507
1.0547
1.05422
1.05362
1.05291
1.0521
1.05118
1.05018
1.05344
1.05332
1.0531
1.05276
1.05231
1.05177
1.05111
1.05036
1.04953
1.0486
1.05163
1.05152
1.05132
1.05101
1.0506
1.05008
1.04948
1.04878
1.04801
1.04717
1.04999
1.0499
1.04971
1.04941
1.04903
1.04855
1.048
1.04735
1.04663
1.04583
1.04852
1.04843
1.04825
1.04798
1.04762
1.04717
1.04665
1.04604
1.04537
1.04463
1.04719
1.0471
1.04693
1.04668
1.04633
1.04592
1.04542
1.04486
1.04422
1.04352
1.04599
1.04591
1.04575
1.04551
1.04518
1.04479
1.04431
1.04378
1.04318
1.04252
1.04491
1.04484
1.04468
1.04446
1.04415
1.04377
1.04332
1.04281
1.04223
1.04161
1.04395
1.04388
1.04373
1.04351
1.04322
1.04285
1.04243
1.04194
1.04139
1.04078
1.04309
1.04302
1.04288
1.04267
1.04239
1.04204
1.04162
1.04116
1.04063
1.04004
1.04233
1.04226
1.04213
1.04192
1.04165
1.04132
1.04092
1.04046
1.03995
1.03939
1.04166
1.04159
1.04146
1.04126
1.041
1.04068
1.04029
1.03985
1.03935
1.0388
1.04107
1.04101
1.04088
1.04069
1.04043
1.04011
1.03975
1.03932
1.03883
1.0383
1.04057
1.04051
1.04039
1.0402
1.03995
1.03964
1.03927
1.03886
1.03838
1.03786
1.04015
1.04009
1.03997
1.03978
1.03954
1.03923
1.03887
1.03846
1.03799
1.03749
1.0398
1.03974
1.03962
1.03944
1.0392
1.0389
1.03855
1.03814
1.03768
1.03718
1.03952
1.03947
1.03935
1.03917
1.03893
1.03864
1.03829
1.03789
1.03744
1.03694
1.03932
1.03926
1.03915
1.03897
1.03874
1.03844
1.0381
1.0377
1.03725
1.03676
1.03918
1.03913
1.03901
1.03884
1.03861
1.03832
1.03797
1.03758
1.03713
1.03664
1.03911
1.03906
1.03895
1.03877
1.03854
1.03825
1.03791
1.03752
1.03707
1.03658
1.06778
1.0777
1.09036
1.10663
1.12782
1.15586
1.19359
1.24527
1.31739
1.42008
1.1063
1.12009
1.13709
1.1583
1.18514
1.21962
1.26465
1.32453
1.40575
1.51827
1.14217
1.15944
1.18034
1.20599
1.23784
1.27802
1.3295
1.39663
1.48588
1.60718
1.1749
1.19518
1.21951
1.24902
1.28528
1.33044
1.38753
1.46096
1.55723
1.68623
1.2039
1.22677
1.25403
1.28688
1.3269
1.37631
1.4382
1.51702
1.6193
1.75493
1.22868
1.25374
1.28347
1.3191
1.36225
1.4152
1.48108
1.56438
1.67167
1.81287
1.24893
1.27574
1.30745
1.34529
1.39096
1.44673
1.5158
1.60269
1.71399
1.85965
1.26434
1.29248
1.32567
1.36519
1.41273
1.47063
1.54209
1.63166
1.74598
1.89499
1.27473
1.30375
1.33793
1.37857
1.42737
1.48668
1.55973
1.65109
1.76742
1.91867
1.27994
1.30941
1.34409
1.38528
1.43471
1.49473
1.56858
1.66084
1.77818
1.93055
0.748346
0.718883
0.684282
0.643262
0.594127
0.534605
0.461611
0.370966
0.257469
0.121854
0.757068
0.729023
0.696194
0.657495
0.611533
0.556583
0.490664
0.412167
0.323116
0.246077
0.774182
0.748712
0.719167
0.684748
0.644537
0.597626
0.543506
0.483338
0.423898
0.388377
0.798651
0.776734
0.751646
0.722922
0.690165
0.653259
0.612926
0.572052
0.538784
0.532417
0.82924
0.811562
0.791704
0.769527
0.745089
0.718911
0.692534
0.669667
0.658385
0.674666
0.864567
0.851543
0.837335
0.822081
0.806206
0.790688
0.777567
0.770879
0.778272
0.813464
0.903216
0.895041
0.886628
0.878335
0.87087
0.865528
0.86465
0.872386
0.895964
0.947642
0.943803
0.940544
0.937884
0.936371
0.936927
0.941084
0.951374
0.971984
1.00983
1.07623
0.985075
0.986765
0.989679
0.9946
1.00265
1.01555
1.03596
1.0681
1.11865
1.19835
1.02695
1.0329
1.04089
1.05173
1.06667
1.08753
1.11706
1.15951
1.22145
1.31321
0.998692
0.9974
0.997346
0.997153
0.996848
0.996454
0.995985
0.995451
0.994858
0.994207
0.993496
0.992723
0.991883
0.990969
0.989971
0.988881
0.987687
0.986375
0.984928
0.983329
0.981555
0.97958
0.977375
0.974903
0.972122
0.968978
0.965408
0.961335
0.956664
0.951275
0.945017
0.937699
0.929074
0.918818
0.906501
0.891541
0.873132
0.850138
0.820906
0.782764
0.998748
0.997486
0.997416
0.997208
0.996891
0.996488
0.996013
0.995475
0.994879
0.994227
0.993516
0.992744
0.991904
0.990992
0.989997
0.988909
0.987718
0.986409
0.984966
0.983372
0.981604
0.979637
0.977441
0.974979
0.972212
0.969084
0.965536
0.961491
0.956855
0.951513
0.945319
0.938086
0.92958
0.91949
0.907412
0.892801
0.874921
0.852751
0.824864
0.789125
0.998857
0.997658
0.997553
0.997316
0.996976
0.996555
0.996068
0.995524
0.994924
0.994269
0.993559
0.992788
0.991951
0.991042
0.990051
0.988969
0.987785
0.986483
0.98505
0.983467
0.981712
0.979762
0.977585
0.975147
0.972409
0.969319
0.965818
0.961834
0.957276
0.952036
0.945977
0.938929
0.930674
0.920935
0.909356
0.895474
0.878682
0.858194
0.832995
0.801877
0.999018
0.997913
0.997756
0.997473
0.997097
0.996653
0.996148
0.995593
0.994987
0.994331
0.993621
0.992852
0.99202
0.991116
0.990133
0.989058
0.987884
0.986594
0.985176
0.98361
0.981875
0.979948
0.9778
0.975399
0.972705
0.969671
0.966241
0.962347
0.957906
0.95282
0.946965
0.940192
0.932314
0.923099
0.912266
0.899464
0.884279
0.866244
0.844908
0.820299
0.999227
0.998248
0.998017
0.997671
0.99725
0.996772
0.996247
0.99568
0.995068
0.994409
0.993701
0.992936
0.99211
0.991214
0.99024
0.989177
0.988016
0.986743
0.985342
0.983798
0.98209
0.980195
0.978086
0.975733
0.973098
0.970138
0.966802
0.963029
0.958744
0.953863
0.948281
0.941874
0.934497
0.925979
0.916129
0.904747
0.891654
0.876773
0.860298
0.843661
0.999479
0.99866
0.998328
0.997903
0.997424
0.996909
0.996362
0.995782
0.995164
0.994505
0.993799
0.99304
0.992221
0.991334
0.990373
0.989325
0.98818
0.986927
0.985549
0.984032
0.982357
0.980502
0.978442
0.976148
0.973587
0.97072
0.967501
0.963879
0.95979
0.955165
0.949922
0.943974
0.93722
0.929566
0.920933
0.911291
0.900733
0.889612
0.878787
0.871087
0.999775
0.999144
0.998678
0.998151
0.997608
0.997055
0.996485
0.995894
0.995272
0.994614
0.993913
0.993161
0.992353
0.991478
0.99053
0.9895
0.988375
0.987145
0.985795
0.984311
0.982675
0.980868
0.978865
0.976643
0.97417
0.971415
0.968337
0.964894
0.96104
0.956723
0.951888
0.946487
0.940479
0.933854
0.926658
0.919055
0.911428
0.90456
0.899941
0.901629
1.00012
0.999701
0.999047
0.9984
0.997789
0.9972
0.996612
0.996013
0.995391
0.994736
0.994041
0.993299
0.992502
0.991642
0.990712
0.989701
0.988599
0.987397
0.986079
0.984634
0.983042
0.98129
0.979355
0.977215
0.974845
0.972218
0.969305
0.966074
0.962494
0.958534
0.954176
0.949412
0.94427
0.938832
0.933286
0.927995
0.923633
0.92139
0.923292
0.934297
1.00053
1.00034
0.9994
0.998621
0.997953
0.997337
0.996738
0.996136
0.995516
0.994869
0.994183
0.993454
0.992671
0.991829
0.990918
0.989931
0.988856
0.987683
0.986404
0.985002
0.983463
0.981775
0.979917
0.977874
0.975625
0.97315
0.970429
0.967446
0.964188
0.960651
0.956852
0.952837
0.948705
0.944645
0.940989
0.938307
0.937547
0.940238
0.948782
0.968424
1.00107
1.00108
0.999668
0.998787
0.998087
0.997462
0.996862
0.996264
0.995652
0.995014
0.994342
0.993627
0.992862
0.99204
0.991152
0.99019
0.989147
0.988011
0.986772
0.985421
0.983943
0.982327
0.980558
0.978625
0.976513
0.974212
0.971715
0.969018
0.966134
0.963092
0.959952
0.956822
0.953892
0.951476
0.95008
0.950505
0.953987
0.962354
0.978236
1.00596
1.00081
1.00089
0.99972
0.998894
0.998218
0.997608
0.997023
0.996442
0.995849
0.995234
0.994587
0.993902
0.993171
0.992388
0.991545
0.990634
0.98965
0.988583
0.987424
0.986166
0.9848
0.983317
0.981709
0.97997
0.978093
0.976082
0.973942
0.971691
0.969365
0.967025
0.964774
0.962776
0.961289
0.960701
0.961607
0.96488
0.971772
0.984023
1.00401
1.03535
1.00026
1.00023
0.999594
0.998945
0.998343
0.997775
0.997224
0.996676
0.996116
0.995538
0.994932
0.994294
0.993615
0.992892
0.992116
0.991284
0.990388
0.989424
0.988385
0.987266
0.986062
0.984769
0.983384
0.98191
0.98035
0.978714
0.977024
0.975313
0.973637
0.97208
0.97077
0.969898
0.969741
0.970702
0.973357
0.978503
0.987222
1.00092
1.02137
1.05055
1.00005
0.999909
0.999481
0.998968
0.998446
0.997934
0.997425
0.996916
0.996395
0.995858
0.995298
0.994708
0.994087
0.993426
0.992721
0.991971
0.991169
0.990311
0.989395
0.988418
0.987379
0.986278
0.985118
0.983907
0.982657
0.981387
0.98013
0.978931
0.977861
0.977018
0.976547
0.976648
0.977603
0.979804
0.983774
0.990212
1.00001
1.01424
1.03414
1.06086
0.99996
0.999761
0.999417
0.998996
0.998546
0.998089
0.997628
0.997161
0.996684
0.996192
0.99568
0.995145
0.99458
0.993986
0.993356
0.992689
0.991982
0.991233
0.990442
0.989608
0.988734
0.987824
0.986886
0.985932
0.984981
0.984062
0.983212
0.982487
0.981968
0.981762
0.982018
0.982939
0.984795
0.987944
0.992851
1.0001
1.01039
1.02452
1.04329
1.06735
0.999923
0.999699
0.999398
0.99904
0.998651
0.998248
0.997835
0.997414
0.996982
0.996537
0.996076
0.995596
0.995094
0.994567
0.994013
0.993432
0.992822
0.992182
0.991516
0.990824
0.990113
0.989389
0.988666
0.98796
0.987294
0.986701
0.986229
0.985937
0.985909
0.986257
0.987129
0.988718
0.991275
0.995118
1.00064
1.00832
1.01869
1.03229
1.04965
1.07104
0.999912
0.999684
0.999412
0.999102
0.998764
0.998412
0.998046
0.997672
0.997288
0.996893
0.996485
0.996061
0.995622
0.995164
0.994687
0.994192
0.993678
0.993148
0.992605
0.992053
0.991501
0.990958
0.990441
0.989968
0.989569
0.98928
0.989148
0.989241
0.989643
0.990462
0.991841
0.99396
0.997042
1.00136
1.00724
1.01505
1.0252
1.03804
1.05386
1.07273
0.999912
0.999694
0.999451
0.99918
0.998888
0.998581
0.998264
0.997937
0.997601
0.997256
0.996902
0.996537
0.996161
0.995773
0.995374
0.994964
0.994547
0.994124
0.9937
0.993285
0.992886
0.992515
0.992191
0.991938
0.991785
0.99177
0.991946
0.992376
0.993144
0.994356
0.996142
0.998663
1.00212
1.00673
1.01277
1.02051
1.03023
1.04217
1.05646
1.07302
0.999919
0.99972
0.999505
0.99927
0.999021
0.998758
0.998486
0.998206
0.997919
0.997626
0.997326
0.997019
0.996706
0.996389
0.996066
0.995741
0.995417
0.9951
0.994794
0.994508
0.994254
0.994047
0.993904
0.993853
0.993923