/*--------------------------------*- C++ -*----------------------------------*\
  =========                 |
  \\      /  F ield         | OpenFOAM: The Open Source CFD Toolbox
   \\    /   O peration     | Website:  https://openfoam.org
    \\  /    A nd           | Version:  6
     \\/     M anipulation  |
\*---------------------------------------------------------------------------*/
FoamFile
{
    version     2.0;
    format      ascii;
    class       surfaceScalarField;
    location    "0";
    object      phi;
}
// * * * * * * * * * * * * * * * * * * * * * * * * * * * * * * * * * * * * * //

dimensions      [0 3 -1 0 0 0 0];

internalField   nonuniform List<scalar> 
10230
(
0.00514874
-0.0734408
0.0682921
0.00989096
-0.0676421
0.0628999
0.0143201
-0.0631748
0.0587457
0.0185029
-0.0596605
0.0554776
0.0224887
-0.0568459
0.0528601
0.0263145
-0.0545567
0.0507309
0.0300091
-0.0526699
0.0489752
0.0335957
-0.0510965
0.0475098
0.0370942
-0.0497718
0.0462732
-0.0486487
0.0452193
0.0405237
0.00469658
-0.0781374
0.00902246
-0.071968
0.0130629
-0.0672152
0.0168789
-0.0634764
0.0205153
-0.0604823
0.0240058
-0.0580473
0.0273762
-0.0560403
0.0306463
-0.0543665
0.0338303
-0.0529558
-0.0517554
0.036937
0.00421542
-0.0823528
0.0080982
-0.0758508
0.0117249
-0.070842
0.0151504
-0.0669019
0.0184148
-0.0637467
0.0215485
-0.061181
0.0245744
-0.0590662
0.0275104
-0.0573025
0.0303703
-0.0558157
-0.0545502
0.0331651
0.00370814
-0.086061
0.00712375
-0.0792664
0.0103142
-0.0740324
0.0133278
-0.0699155
0.0162
-0.0666189
0.0189575
-0.0639384
0.0216205
-0.0617293
0.0242051
-0.0598871
0.0267241
-0.0583347
-0.0570141
0.029188
0.00317782
-0.0892388
0.00610502
-0.0821936
0.00883941
-0.0767668
0.0114224
-0.0724985
0.0138843
-0.0690809
0.0162481
-0.0663022
0.0185314
-0.0640126
0.0207479
-0.0621036
0.0229086
-0.0604954
-0.059128
0.0250226
0.00262772
-0.0918665
0.00504825
-0.0846141
0.00730942
-0.079028
0.0094455
-0.0746345
0.0114817
-0.071117
0.0134368
-0.0682574
0.0153256
-0.0659013
0.0171593
-0.0639373
0.018947
-0.0622831
-0.060877
0.0206959
0.00206121
-0.0939277
0.00395992
-0.0865128
0.0057337
-0.0808018
0.00740942
-0.0763103
0.00900684
-0.0727145
0.0105408
-0.0697914
0.0120228
-0.0673833
0.0134616
-0.0653761
0.0148644
-0.0636858
-0.0622493
0.0162367
0.0014818
-0.0954095
0.0028468
-0.0878778
0.00412201
-0.082077
0.00532677
-0.077515
0.00647529
-0.073863
0.00757825
-0.0708943
0.00864384
-0.0684489
0.00967845
-0.0664107
0.0106871
-0.0646945
-0.063236
0.0116738
0.000893113
-0.0963026
0.00171582
-0.0887005
0.00248442
-0.0828456
0.00321058
-0.0782412
0.00390287
-0.0745553
0.00456773
-0.0715592
0.00521007
-0.0690912
0.00583376
-0.0670344
0.0064418
-0.0653025
-0.0638308
0.00703661
0.00029884
-0.0966015
0.000574066
-0.0889757
0.000831198
-0.0831027
0.00107415
-0.0784841
0.00130579
-0.0747869
0.00152827
-0.0717817
0.00174324
-0.0693062
0.00195198
-0.0672432
0.0021555
-0.065506
0.00235461
-0.0640299
0.0075781
-0.0075781
0.0145581
-0.00697995
0.0210774
-0.00651936
0.0272347
-0.00615724
0.0331021
-0.00586746
0.0387342
-0.00563204
0.0441725
-0.0054383
0.0494496
-0.0052771
0.0545914
-0.00514188
-0.00502802
0.0596195
0.00753126
-0.0151094
0.0144681
-0.0139168
0.0209471
-0.0129984
0.0270662
-0.0122763
0.0328972
-0.0116985
0.0384941
-0.011229
0.0438983
-0.0108425
0.0491417
-0.0105205
0.0542493
-0.0102495
-0.010019
0.0592403
0.00743791
-0.0225473
0.0142887
-0.0207675
0.0206873
-0.019397
0.0267303
-0.0183194
0.0324888
-0.0174569
0.038016
-0.0167562
0.0433528
-0.0161792
0.0485308
-0.0156986
0.0535753
-0.0152939
-0.01495
0.0585063
0.00729866
-0.0298459
0.0140211
-0.02749
0.0202997
-0.0256756
0.0262294
-0.024249
0.0318796
-0.0231072
0.0373028
-0.0221794
0.0425391
-0.0214155
0.0476198
-0.0207793
0.0525697
-0.0202439
-0.019789
0.0574088
0.00711441
-0.0369603
0.0136671
-0.0340426
0.019787
-0.0317955
0.0255665
-0.0300285
0.0310735
-0.0286142
0.036359
-0.0274649
0.0414622
-0.0265187
0.0464136
-0.0257308
0.0512378
-0.025068
-0.0245055
0.0559542
0.00688635
-0.0438467
0.0132289
-0.0403852
0.0191524
-0.037719
0.0247462
-0.0356223
0.0300759
-0.0339439
0.0351908
-0.0325798
0.0401288
-0.0314567
0.0449195
-0.0305215
0.0495868
-0.0297353
-0.0290687
0.05415
0.00661597
-0.0504627
0.0127094
-0.0464786
0.0184001
-0.0434098
0.0237738
-0.040996
0.0288934
-0.0390635
0.0338061
-0.0374925
0.038548
-0.0361986
0.0431474
-0.0351209
0.0476269
-0.0342148
-0.0334474
0.0520057
0.00630499
-0.0567677
0.012112
-0.0522856
0.0175351
-0.0488329
0.0226559
-0.0461168
0.0275343
-0.0439419
0.032215
-0.0421732
0.0367319
-0.0407155
0.041111
-0.0394999
0.0453725
-0.0384763
-0.0376084
0.0495335
0.00595533
-0.062723
0.0114403
-0.0577705
0.0165627
-0.0539553
0.0213997
-0.0509538
0.0260077
-0.0485499
0.030429
-0.0465945
0.0346953
-0.0449817
0.03883
-0.0436347
0.0428489
-0.0424952
-0.0415172
0.0467577
0.00556912
0.0106985
0.0154889
0.0200127
0.0243229
0.0284593
0.0324528
0.036328
0.040106
0.0438081
0.0628951
-0.00327566
0.0653155
-0.00242041
0.0671558
-0.0018403
0.0685749
-0.0014191
0.0696807
-0.00110571
0.0705483
-0.000867629
0.0712318
-0.000683485
0.0717706
-0.000538812
0.0721941
-0.000423567
0.0725248
-0.000330631
0.0727796
-0.000254857
0.0729721
-0.000192459
0.0731127
-0.000140611
0.0732099
-9.71728e-05
0.0732704
-6.05049e-05
0.0732997
-2.93352e-05
0.0733024
-2.66712e-06
0.0732821
2.02878e-05
0.0732419
4.0159e-05
0.0731845
5.74531e-05
0.0731119
7.25814e-05
0.073026
8.58801e-05
0.0729284
9.76257e-05
0.0728204
0.000108048
0.072703
0.000117337
0.0725774
0.000125656
0.0724442
0.000133138
0.0723043
0.0001399
0.0721583
0.000146041
0.0720066
0.000151646
0.0718498
0.000156788
0.0716883
0.000161532
0.0715224
0.000165936
0.0713523
0.000170048
0.0711784
0.000173916
0.0710008
0.000177578
0.0708198
0.000181073
0.0706353
0.000184436
0.0704476
0.000187698
0.000190893
0.0624631
-0.00649842
0.0648665
-0.00482383
0.0667057
-0.00367946
0.0681312
-0.0028446
0.069247
-0.00222157
0.0701267
-0.00174727
0.0708231
-0.00137987
0.0713752
-0.00109089
0.0718121
-0.000860505
0.0721561
-0.000674601
0.0724242
-0.000522955
0.0726297
-0.000398038
0.0727833
-0.000294215
0.0728934
-0.000207218
0.0729667
-0.000133772
0.0730087
-7.13347e-05
0.0730239
-1.79124e-05
0.0730161
2.8072e-05
0.0729884
6.78787e-05
0.0729433
0.000102522
0.0728831
0.000132826
0.0728095
0.000159464
0.0727241
0.000182989
0.0726283
0.000203863
0.0725232
0.000222467
0.0724097
0.000239126
0.0722888
0.000254109
0.072161
0.00026765
0.0720271
0.000279947
0.0718876
0.000291169
0.0717429
0.000301465
0.0715935
0.000310965
0.0714396
0.000319782
0.0712816
0.000328017
0.0711198
0.000335761
0.0709543
0.000343097
0.0707853
0.000350098
0.0706129
0.000356835
0.0704372
0.000363372
0.000369774
0.0616299
-0.00962204
0.063994
-0.00718798
0.0658256
-0.00551106
0.0672599
-0.00427884
0.068393
-0.00335473
0.0692945
-0.00264869
0.0700149
-0.00210032
0.0705922
-0.00166816
0.0710548
-0.00132311
0.0714246
-0.00104438
0.0717184
-0.000816829
0.0719497
-0.00062927
0.0721288
-0.000473314
0.0722641
-0.000342592
0.0723626
-0.000232206
0.0724296
-0.000138351
0.0724697
-5.8041e-05
0.0724867
1.10912e-05
0.0724836
7.09362e-05
0.0724631
0.000123018
0.0724274
0.000168574
0.0723782
0.000208616
0.0723173
0.000243978
0.0722458
0.000275351
0.0721649
0.000303312
0.0720757
0.000328346
0.071979
0.000350862
0.0718754
0.000371209
0.0717657
0.000389684
0.0716503
0.000406545
0.0715297
0.000422015
0.0714044
0.000436289
0.0712747
0.000449537
0.0711408
0.000461912
0.071003
0.000473551
0.0708615
0.000484578
0.0707165
0.000495104
0.0705681
0.000505236
0.0704164
0.000515071
0.000524706
0.0603856
-0.0125989
0.0626921
-0.00949441
0.0645122
-0.00733124
0.0659593
-0.00572593
0.0671182
-0.00451358
0.0680521
-0.00358255
0.0688084
-0.0028567
0.0694233
-0.00228306
0.0699243
-0.00182408
0.0703327
-0.00145273
0.070665
-0.00114922
0.0709346
-0.000898828
0.0711518
-0.000690496
0.071325
-0.000515792
0.071461
-0.000368219
0.0715654
-0.000242719
0.0716426
-0.000135317
0.0716966
-4.28572e-05
0.0717303
3.71823e-05
0.0717465
0.000106837
0.0717473
0.000167761
0.0717346
0.000221307
0.07171
0.00026859
0.0716749
0.000310536
0.0716302
0.000347915
0.0715772
0.000381378
0.0715166
0.000411473
0.0714492
0.000438665
0.0713755
0.000463355
0.0712961
0.000485887
0.0712116
0.00050656
0.0711222
0.000525634
0.0710284
0.000543339
0.0709305
0.00055988
0.0708286
0.00057544
0.070723
0.000590184
0.0706138
0.000604264
0.0705012
0.000617821
0.0703853
0.000630987
0.000643893
0.0587384
-0.0153831
0.0609688
-0.0117248
0.0627733
-0.00913575
0.064237
-0.00718963
0.0654297
-0.00570626
0.0664065
-0.00455935
0.0672105
-0.00366071
0.0678753
-0.00294787
0.0684272
-0.00237594
0.0688867
-0.00191226
0.0692702
-0.00153269
0.0695906
-0.0012192
0.0698582
-0.000958158
0.0700816
-0.000739119
0.0702674
-0.000554019
0.0704212
-0.000396564
0.0705477
-0.000261791
0.0706506
-0.000145761
0.0707331
-4.53146e-05
0.0707978
4.20959e-05
0.070847
0.000118544
0.0708826
0.000185727
0.0709062
0.000245046
0.070919
0.00029766
0.0709224
0.000344542
0.0709173
0.000386505
0.0709045
0.000424239
0.0708849
0.000458331
0.0708589
0.000489282
0.0708273
0.000517527
0.0707904
0.00054344
0.0707487
0.00056735
0.0707025
0.000589546
0.0706521
0.000610285
0.0705977
0.000629799
0.0705396
0.000648294
0.0704779
0.000665964
0.0704128
0.000682986
0.0703442
0.000699526
0.000715749
0.0566983
-0.0179314
0.058835
-0.0138615
0.0606192
-0.01092
0.0621029
-0.00867328
0.0633372
-0.00694056
0.0643671
-0.0055893
0.0652302
-0.00452382
0.065957
-0.00367468
0.0665721
-0.00299103
0.0670952
-0.00243534
0.0675421
-0.00197958
0.0679256
-0.00160265
0.0682558
-0.00128845
0.0685413
-0.00102461
0.0687889
-0.000801549
0.069004
-0.000611736
0.0691915
-0.000449236
0.069355
-0.000309322
0.0694979
-0.000188199
0.0696228
-8.28005e-05
0.069732
9.37044e-06
0.0698274
9.036e-05
0.0699106
0.000161857
0.069983
0.000225263
0.0700457
0.00028175
0.0700999
0.000332302
0.0701464
0.000377752
0.070186
0.000418809
0.0702192
0.00045608
0.0702466
0.000490088
0.0702687
0.000521288
0.070286
0.000550076
0.0702988
0.000576803
0.0703073
0.000601781
0.0703118
0.000625287
0.0703125
0.000647576
0.0703096
0.000668879
0.0703032
0.000689412
0.0702933
0.000709378
0.000728976
0.0542771
-0.0202029
0.0563035
-0.0158879
0.0580625
-0.012679
0.0595689
-0.0101798
0.0608523
-0.00822389
0.0619453
-0.0066823
0.0628787
-0.00545726
0.0636794
-0.00447533
0.0643698
-0.00368143
0.0649686
-0.0030341
0.0654909
-0.00250197
0.0659494
-0.00206113
0.0663542
-0.0016932
0.0667136
-0.001384
0.0670344
-0.00112242
0.0673224
-0.000899746
0.0675823
-0.000709075
0.0678178
-0.00054489
0.0680324
-0.000402757
0.0682287
-0.000279086
0.068409
-0.00017095
0.0685753
-7.5948e-05
0.0687293
7.90203e-06
0.0688723
8.22476e-05
0.0690056
0.000148465
0.0691302
0.000207712
0.069247
0.000260969
0.0693567
0.000309069
0.06946
0.000352727
0.0695576
0.000392558
0.0696498
0.000429098
0.069737
0.000462814
0.0698197
0.000494119
0.0698981
0.000523379
0.0699725
0.000550924
0.070043
0.000577052
0.0701098
0.000602038
0.0701731
0.000626135
0.0702329
0.000649585
0.000672621
0.0514884
-0.0221578
0.0533889
-0.0177885
0.0551177
-0.0144078
0.0566495
-0.0117115
0.0579889
-0.00956326
0.0591546
-0.00784795
0.0601693
-0.00647195
0.0610554
-0.0053614
0.0618329
-0.00445896
0.0625192
-0.00372039
0.0631288
-0.0031116
0.0636739
-0.00260625
0.0641646
-0.00218391
0.0646092
-0.00182861
0.0650147
-0.00152784
0.0653866
-0.0012717
0.0657299
-0.00105232
0.0660484
-0.000863395
0.0663455
-0.000699852
0.0666239
-0.000557567
0.0668862
-0.000433176
0.0671341
-0.000323918
0.0673696
-0.000227509
0.0675938
-0.000142051
0.0678083
-6.59568e-05
0.0680139
2.10936e-06
0.0682116
6.32776e-05
0.0684021
0.00011851
0.0685862
0.000168632
0.0687644
0.000214354
0.0689372
0.000256294
0.069105
0.000294992
0.0692682
0.000330926
0.0694271
0.000364518
0.0695819
0.000396151
0.0697328
0.000426169
0.0698799
0.00045489
0.0700234
0.00048261
0.0701634
0.000509606
0.000536151
0.0483733
-0.0237734
0.0501351
-0.0195503
0.051825
-0.0160977
0.0533796
-0.0132661
0.0547776
-0.0109613
0.0560219
-0.00909221
0.0571259
-0.00757596
0.0581067
-0.00634216
0.0589813
-0.00533356
0.0597654
-0.00450449
0.0604727
-0.00381894
0.061115
-0.00324856
0.0617022
-0.00277107
0.0622425
-0.00236893
0.0627429
-0.00202824
0.0632092
-0.00173797
0.0636462
-0.0014893
0.0640579
-0.00127513
0.0644478
-0.00108973
0.0648187
-0.000928461
0.065173
-0.0007875
0.0655128
-0.000663718
0.0658398
-0.000554524
0.0661555
-0.000457764
0.0664612
-0.000371633
0.0667579
-0.000294614
0.0670466
-0.00022542
0.0673281
-0.000162958
0.067603
-0.000106289
0.067872
-5.46043e-05
0.0681355
-7.20031e-06
0.0683939
3.65382e-05
0.0686477
7.7154e-05
0.0688971
0.00011513
0.0691423
0.000150901
0.0693837
0.000184862
0.0696212
0.000217374
0.069855
0.000248775
0.0700852
0.000279385
0.00030951
0.0451251
-0.0250903
0.0466815
-0.0211068
0.0482815
-0.0176977
0.0498259
-0.0148105
0.0512651
-0.0124006
0.0525816
-0.0104087
0.0537755
-0.00876983
0.0548557
-0.00742237
0.0558346
-0.00631246
0.0567251
-0.00539504
0.0575396
-0.00463334
0.0582888
-0.00399776
0.0589823
-0.00346459
0.0596283
-0.0030149
0.0602336
-0.00263355
0.060804
-0.00230844
0.0613446
-0.00202982
0.0618593
-0.00178983
0.0623516
-0.0015821
0.0628246
-0.00140141
0.0632806
-0.00124352
0.0637218
-0.00110492
0.06415
-0.000982688
0.0645666
-0.000874416
0.0649731
-0.000778074
0.0653704
-0.000691956
0.0657596
-0.000614616
0.0661415
-0.000544823
0.0665167
-0.000481522
0.0668859
-0.000423801
0.0672496
-0.00037087
0.0676081
-0.000322036
0.067962
-0.000276687
0.0683114
-0.000234278
0.0686566
-0.000194321
0.0689978
-0.00015637
0.0693352
-0.000120015
0.0696689
-8.48747e-05
0.0699989
-5.05884e-05
-1.68096e-05
0.0819418
-0.0224892
-0.0845428
0.0803669
-0.0195319
0.0794418
-0.0167725
0.078951
-0.0143198
0.0787472
-0.0121967
0.0787271
-0.0103886
0.0788203
-0.008863
0.0789796
-0.00758169
0.0791742
-0.00650704
0.0793842
-0.00560503
0.0795971
-0.00484621
0.0798051
-0.00420582
0.0800039
-0.00366333
0.0801908
-0.00320187
0.0803649
-0.00280762
0.0805258
-0.00246931
0.0806736
-0.0021777
0.0808091
-0.00192524
0.0809327
-0.00170571
0.0810452
-0.001514
0.0811476
-0.00134585
0.0812404
-0.00119777
0.0813245
-0.00106679
0.0814006
-0.000950462
0.0814692
-0.000846701
0.081531
-0.000753747
0.0815865
-0.000670102
0.0816361
-0.000594482
0.0816804
-0.000525781
0.0817196
-0.000463043
0.0817542
-0.000405432
0.0817844
-0.000352215
0.0818104
-0.00030274
0.0818326
-0.000256429
0.081851
-0.000212756
0.0818659
-0.000171246
0.0818773
-0.000131458
0.0818855
-9.29803e-05
0.0818903
-5.54244e-05
-1.84152e-05
0.0836818
-0.0200115
-0.0861595
0.0819905
-0.0178406
0.0808849
-0.015667
0.0802002
-0.0136351
0.0798111
-0.0118076
0.0796248
-0.0102023
0.0795742
-0.00881243
0.0796119
-0.0076194
0.0797049
-0.00660006
0.0798307
-0.00573076
0.0799738
-0.00498939
0.0801243
-0.00435627
0.0802754
-0.0038144
0.0804228
-0.00334929
0.080564
-0.00294878
0.0806973
-0.0026027
0.0808222
-0.00230255
0.0809382
-0.00204127
0.0810455
-0.00181296
0.0811442
-0.00161271
0.0812347
-0.00143639
0.0813175
-0.00128055
0.081393
-0.00114228
0.0814616
-0.00101911
0.0815239
-0.00090897
0.0815802
-0.000810062
0.081631
-0.000720866
0.0816766
-0.000640069
0.0817173
-0.000566533
0.0817535
-0.000499269
0.0817855
-0.00043741
0.0818135
-0.000380191
0.0818377
-0.000326933
0.0818583
-0.000277026
0.0818755
-0.00022992
0.0818893
-0.00018511
0.0819
-0.00014213
0.0819076
-0.000100544
0.0819121
-5.99387e-05
-1.99155e-05
0.0849591
-0.0177024
-0.0872682
0.0832694
-0.016151
0.0820804
-0.014478
0.0812754
-0.01283
0.0807556
-0.0112879
0.0804425
-0.00988927
0.0802762
-0.00864604
0.0802117
-0.00755491
0.0802164
-0.0066048
0.0802669
-0.00578122
0.0803464
-0.00506888
0.0804431
-0.00445305
0.080549
-0.00392029
0.0806584
-0.0034587
0.0807676
-0.00305792
0.0808739
-0.00270906
0.0809759
-0.00240453
0.0810726
-0.00213789
0.0811633
-0.0019037
0.0812479
-0.00169733
0.0813264
-0.00151487
0.0813988
-0.00135299
0.0814654
-0.00120887
0.0815264
-0.00108011
0.0815821
-0.000964626
0.0816327
-0.000860663
0.0816785
-0.000766689
0.0817198
-0.000681383
0.0817569
-0.000603594
0.0817899
-0.000532314
0.0818192
-0.000466657
0.0818448
-0.000405837
0.0818671
-0.000349154
0.081886
-0.000295977
0.0819018
-0.000245732
0.0819146
-0.000197896
0.0819245
-0.000151981
0.0819314
-0.00010753
0.0819356
-6.41105e-05
-2.13026e-05
0.0858719
-0.0156037
-0.0879707
0.0842538
-0.0145328
0.08305
-0.0132742
0.0821828
-0.0119628
0.0815785
-0.0106836
0.081174
-0.00948481
0.0809181
-0.00839015
0.0807707
-0.00740745
0.080701
-0.00653509
0.080686
-0.00576624
0.0807087
-0.00509158
0.0807566
-0.00450094
0.0808206
-0.00398432
0.0808943
-0.00353233
0.0809728
-0.00313651
0.0810531
-0.00278933
0.0811328
-0.00248421
0.0812103
-0.00221543
0.0812847
-0.00197808
0.0813553
-0.00176789
0.0814216
-0.00158124
0.0814836
-0.00141499
0.0815412
-0.00126644
0.0815944
-0.00113328
0.0816433
-0.00101351
0.081688
-0.000905386
0.0817287
-0.000807413
0.0817656
-0.000718275
0.0817988
-0.000636825
0.0818286
-0.000562051
0.081855
-0.000493058
0.0818782
-0.00042905
0.0818983
-0.000369312
0.0819156
-0.000313201
0.08193
-0.000260128
0.0819416
-0.000209552
0.0819506
-0.00016097
0.081957
-0.000113911
0.0819608
-6.79223e-05
-2.25704e-05
0.086502
-0.01373
-0.0883758
0.0849943
-0.013025
0.0838216
-0.0121015
0.0829354
-0.0110767
0.0822838
-0.010032
0.0818181
-0.0090191
0.0814963
-0.00806839
0.081284
-0.00719506
0.0811533
-0.00640448
0.081083
-0.00569585
0.0810562
-0.00506484
0.0810606
-0.00450529
0.0810866
-0.00401031
0.0811271
-0.00357292
0.0811771
-0.00318649
0.0812326
-0.00284486
0.0812909
-0.00254251
0.08135
-0.00227449
0.0814084
-0.00203646
0.0814651
-0.00182461
0.0815195
-0.00163561
0.081571
-0.00146657
0.0816196
-0.00131495
0.0816649
-0.00117858
0.0817069
-0.00105553
0.0817456
-0.000944138
0.0817812
-0.000842937
0.0818135
-0.000750644
0.0818428
-0.000666128
0.0818692
-0.000588386
0.0818926
-0.000516526
0.0819133
-0.000449749
0.0819314
-0.000387337
0.0819468
-0.000328638
0.0819597
-0.000273054
0.0819702
-0.000220034
0.0819783
-0.000169065
0.081984
-0.000119661
0.0819875
-7.13596e-05
-2.3714e-05
0.0869168
-0.0120768
-0.08857
0.0855377
-0.0116459
0.0844245
-0.0109883
0.0835501
-0.0102024
0.0828798
-0.00936157
0.0823775
-0.00851683
0.0820102
-0.0077011
0.0817491
-0.006934
0.0815703
-0.00622564
0.0814542
-0.00557978
0.0813854
-0.00499606
0.0813518
-0.00447166
0.0813439
-0.00400241
0.0813545
-0.00358353
0.0813781
-0.00321009
0.0814105
-0.00287728
0.0814486
-0.0025806
0.08149
-0.0023159
0.081533
-0.00207944
0.0815763
-0.00186788
0.0816189
-0.00167824
0.0816603
-0.00150789
0.0816998
-0.0013545
0.0817373
-0.00121604
0.0817724
-0.0010907
0.0818052
-0.000976893
0.0818355
-0.00087322
0.0818633
-0.000778438
0.0818886
-0.000691446
0.0819114
-0.00061126
0.0819319
-0.000537002
0.0819501
-0.00046788
0.0819659
-0.000403178
0.0819795
-0.000342242
0.0819909
-0.000284471
0.0820002
-0.00022931
0.0820074
-0.000176238
0.0820125
-0.000124762
0.0820155
-7.44112e-05
-2.47297e-05
0.0871703
-0.0106289
-0.0886181
0.0859247
-0.0104003
0.0848869
-0.00995049
0.0840448
-0.00936029
0.0833768
-0.00869352
0.0828574
-0.00799747
0.0824615
-0.0073052
0.0821659
-0.00663836
0.0819503
-0.00601004
0.0817977
-0.00542715
0.081694
-0.00489237
0.0816279
-0.00440557
0.0815904
-0.00396488
0.0815742
-0.00356741
0.0815739
-0.00320979
0.0815851
-0.00288845
0.0816044
-0.00259987
0.0816292
-0.00234069
0.0816575
-0.00210778
0.0816879
-0.00189825
0.0817192
-0.00170952
0.0817505
-0.00153922
0.0817813
-0.00138527
0.081811
-0.00124578
0.0818394
-0.00111908
0.0818662
-0.00100369
0.0818912
-0.000898271
0.0819144
-0.000801649
0.0819358
-0.000712758
0.0819551
-0.000630647
0.0819726
-0.000554457
0.0819881
-0.000483412
0.0820017
-0.000416803
0.0820135
-0.000353983
0.0820234
-0.000294354
0.0820314
-0.000237358
0.0820377
-0.000182472
0.0820421
-0.000129201
0.0820448
-7.7069e-05
-2.56147e-05
0.0873048
-0.0093666
-0.0885672
0.0861893
-0.00928474
0.0852342
-0.00899535
0.0844372
-0.00856329
0.0837863
-0.00804268
0.0832648
-0.0074759
0.0828539
-0.00689434
0.0825356
-0.00632007
0.0822933
-0.0057677
0.0821123
-0.00524622
0.0819804
-0.00476045
0.0818872
-0.00431235
0.0818242
-0.00390191
0.0817847
-0.00352785
0.081763
-0.00318814
0.0817549
-0.00288034
0.0817569
-0.00260185
0.0817662
-0.00235003
0.0817808
-0.00212235
0.0817989
-0.0019164
0.0818194
-0.00172995
0.0818411
-0.00156094
0.0818633
-0.00140752
0.0818855
-0.00126798
0.0819073
-0.00114081
0.0819282
-0.00102461
0.0819481
-0.00091815
0.0819667
-0.000820311
0.0819841
-0.000730082
0.082
-0.00064655
0.0820144
-0.000568885
0.0820273
-0.000496332
0.0820387
-0.000428199
0.0820486
-0.000363847
0.0820569
-0.000302686
0.0820637
-0.000244163
0.082069
-0.000187756
0.0820728
-0.00013297
0.082075
-7.9328e-05
-2.63673e-05
0.087353
-0.00826843
-0.0884512
0.0863596
-0.0082913
0.0854884
-0.00812416
0.0847435
-0.00781838
0.0841198
-0.00741901
0.0836069
-0.00696302
0.0831918
-0.00647919
0.0828606
-0.00598888
0.0826001
-0.0055072
0.0823981
-0.00504426
0.0822441
-0.00460637
0.0821287
-0.00419698
0.0820443
-0.00381754
0.0819845
-0.00346807
0.0819441
-0.00314771
0.0819188
-0.00285499
0.081905
-0.00258813
0.0819002
-0.00234517
0.081902
-0.00212413
0.0819086
-0.00192307
0.0819188
-0.00174011
0.0819314
-0.0015735
0.0819454
-0.00142161
0.0819604
-0.00128292
0.0819756
-0.00115608
0.0819908
-0.0010398
0.0820056
-0.000932956
0.0820198
-0.000834495
0.0820332
-0.000743465
0.0820457
-0.000659
0.0820571
-0.000580305
0.0820674
-0.000506652
0.0820766
-0.000437369
0.0820846
-0.000371834
0.0820913
-0.000309467
0.0820969
-0.000249723
0.0821012
-0.000192086
0.0821043
-0.000136066
0.0821062
-8.11863e-05
-2.69868e-05
0.0873396
-0.00731368
-0.0882943
0.0864579
-0.00740967
0.0856683
-0.00733452
0.0849785
-0.00712854
0.0843881
-0.00682866
0.0838916
-0.00646653
0.0834803
-0.00606786
0.083144
-0.00565261
0.0828725
-0.00523566
0.0826558
-0.00482758
0.0824849
-0.00443552
0.0823519
-0.004064
0.0822499
-0.00371552
0.082173
-0.00339118
0.0821163
-0.00309102
0.0820758
-0.00281443
0.082048
-0.00256034
0.0820302
-0.00232741
0.0820203
-0.00211417
0.0820163
-0.00191909
0.0820168
-0.00174065
0.0820207
-0.0015774
0.082027
-0.00142792
0.082035
-0.0012909
0.0820441
-0.00116512
0.0820537
-0.00104945
0.0820636
-0.00094283
0.0820734
-0.000844306
0.0820829
-0.000752986
0.082092
-0.000668055
0.0821004
-0.000588759
0.0821082
-0.000514401
0.0821151
-0.000444335
0.0821213
-0.000377957
0.0821265
-0.000314704
0.0821308
-0.000254043
0.0821342
-0.000195466
0.0821366
-0.00013849
0.0821381
-8.26445e-05
-2.74735e-05
0.0872831
-0.0064832
-0.0881136
0.0865021
-0.00662874
0.0857895
-0.00662187
0.0851549
-0.00649395
0.0846012
-0.00627494
0.0841262
-0.00599153
0.0837246
-0.00566627
0.0833893
-0.00531735
0.0831126
-0.0049589
0.0828865
-0.00460146
0.0827035
-0.00425259
0.082557
-0.00391745
0.0824408
-0.00359931
0.0823496
-0.00330005
0.0822791
-0.00302047
0.0822253
-0.00276064
0.082185
-0.0025201
0.0821557
-0.00229807
0.082135
-0.00209352
0.0821213
-0.00190531
0.0821129
-0.00173227
0.0821087
-0.00157319
0.0821077
-0.00142689
0.082109
-0.00129226
0.0821121
-0.00116822
0.0821164
-0.00105376
0.0821215
-0.000947943
0.0821271
-0.000849878
0.0821329
-0.000758749
0.0821386
-0.000673795
0.0821442
-0.000594307
0.0821494
-0.000519625
0.0821542
-0.000449129
0.0821585
-0.000382242
0.0821622
-0.000318417
0.0821653
-0.000257136
0.0821677
-0.000197905
0.0821695
-0.000140248
0.0821705
-8.37061e-05
-2.78284e-05
0.0871974
-0.00575982
-0.0879208
0.0865062
-0.00593748
0.0858648
-0.00598045
0.0852838
-0.00591295
0.0847679
-0.0057591
0.0843175
-0.00554116
0.0839299
-0.0052786
0.0836002
-0.0049877
0.0833229
-0.00468155
0.0830917
-0.0043703
0.0829007
-0.00406158
0.0827442
-0.00376089
0.0826168
-0.003472
0.0825141
-0.00319733
0.082432
-0.00293829
0.0823668
-0.00269548
0.0823157
-0.00246898
0.0822761
-0.00225844
0.0822458
-0.00206325
0.0822231
-0.00188262
0.0822065
-0.00171567
0.0821948
-0.00156145
0.0821869
-0.00141901
0.082182
-0.00128739
0.0821795
-0.00116569
0.0821787
-0.001053
0.0821792
-0.000948492
0.0821807
-0.000851368
0.0821829
-0.000760878
0.0821854
-0.000676319
0.0821881
-0.000597028
0.0821909
-0.000522384
0.0821935
-0.000451801
0.082196
-0.000384726
0.0821982
-0.000320633
0.0822001
-0.000259023
0.0822016
-0.000199417
0.0822027
-0.000141351
0.0822034
-8.43766e-05
-2.80534e-05
0.0870929
-0.00512849
-0.0877242
0.0864809
-0.00532546
0.0859045
-0.00540402
0.0853743
-0.00538277
0.0848961
-0.00528097
0.084472
-0.00511704
0.084101
-0.00490762
0.0837804
-0.00466703
0.083506
-0.00440719
0.0832734
-0.00413765
0.0830776
-0.00386586
0.0829141
-0.00359739
0.0827785
-0.00333632
0.0826665
-0.00308543
0.0825748
-0.00284655
0.0825001
-0.00262074
0.0824396
-0.00240847
0.0823909
-0.00220978
0.0823521
-0.0020244
0.0823213
-0.00185188
0.0822972
-0.00169157
0.0822786
-0.00154279
0.0822643
-0.00140475
0.0822536
-0.0012767
0.0822458
-0.00115784
0.0822402
-0.00104742
0.0822364
-0.000944696
0.082234
-0.000848955
0.0822326
-0.000759519
0.082232
-0.000675743
0.082232
-0.000597016
0.0822324
-0.000522755
0.082233
-0.000452409
0.0822337
-0.000385454
0.0822345
-0.000321388
0.0822352
-0.000259731
0.0822358
-0.000200022
0.0822363
-0.000141812
0.0822366
-8.46641e-05
-2.8151e-05
0.086977
-0.00457615
-0.0875294
0.0864347
-0.00478311
0.085917
-0.00488632
0.0854342
-0.00489998
0.0849926
-0.00483939
0.0845953
-0.00471969
0.0842426
-0.00455496
0.0839333
-0.00435768
0.0836646
-0.00413853
0.0834333
-0.00390634
0.0832356
-0.00366817
0.0830677
-0.00342955
0.0829261
-0.00319463
0.0828071
-0.00296646
0.0827077
-0.00274713
0.082625
-0.00253804
0.0825565
-0.00233996
0.0825
-0.00215328
0.0824536
-0.00197801
0.0824156
-0.00181394
0.0823848
-0.00166071
0.0823598
-0.00151779
0.0823396
-0.00138463
0.0823235
-0.00126059
0.0823107
-0.00114504
0.0823006
-0.00103732
0.0822927
-0.000936791
0.0822866
-0.000842831
0.0822819
-0.000754829
0.0822784
-0.000672197
0.0822757
-0.000594374
0.0822738
-0.000520822
0.0822724
-0.000451022
0.0822714
-0.000384482
0.0822708
-0.000320726
0.0822703
-0.000259294
0.0822701
-0.000199745
0.0822699
-0.000141647
0.0822698
-8.45782e-05
-2.81246e-05
0.0868552
-0.00409158
-0.0873398
0.0863739
-0.00430181
0.0859089
-0.00442131
0.0854698
-0.00446087
0.085063
-0.00443259
0.0846922
-0.00434885
0.0843587
-0.00422145
0.0840622
-0.0040612
0.0838012
-0.00387755
0.0835734
-0.00367853
0.083376
-0.00347075
0.083206
-0.00325952
0.0830603
-0.00304899
0.0829361
-0.00284228
0.0828307
-0.0026417
0.0827415
-0.00244884
0.0826663
-0.00226476
0.0826031
-0.00209006
0.0825501
-0.00192501
0.0825058
-0.00176964
0.0824689
-0.00162376
0.0824381
-0.00148707
0.0824126
-0.00135913
0.0823915
-0.00123949
0.0823741
-0.00112762
0.0823598
-0.00102298
0.082348
-0.000925023
0.0823384
-0.000833203
0.0823305
-0.000746978
0.0823242
-0.000665822
0.082319
-0.000589221
0.0823149
-0.00051668
0.0823116
-0.000447718
0.0823089
-0.000381873
0.0823069
-0.000318695
0.0823054
-0.00025775
0.0823042
-0.000198614
0.0823035
-0.000140876
0.082303
-8.41306e-05
-2.79778e-05
0.0867316
-0.00366519
-0.0871579
0.0863036
-0.00387389
0.0858857
-0.00400333
0.0854865
-0.00406167
0.0851123
-0.00405843
0.0847671
-0.00400368
0.084453
-0.00390728
0.0841703
-0.0037785
0.0839183
-0.00362562
0.0836957
-0.00345588
0.0835003
-0.00327536
0.0833298
-0.00308909
0.0831819
-0.00290109
0.0830542
-0.0027145
0.0829442
-0.00253172
0.0828498
-0.00235448
0.0827691
-0.00218403
0.0827002
-0.00202116
0.0826415
-0.00186633
0.0825916
-0.00171975
0.0825493
-0.00158142
0.0825134
-0.00145118
0.082483
-0.00132876
0.0824574
-0.00121382
0.0824357
-0.00110595
0.0824174
-0.00100471
0.082402
-0.000909646
0.0823891
-0.000820282
0.0823783
-0.000736146
0.0823692
-0.000656766
0.0823617
-0.000581679
0.0823554
-0.000510432
0.0823503
-0.000442581
0.0823461
-0.000377694
0.0823428
-0.00031535
0.0823402
-0.00025514
0.0823382
-0.000196662
0.0823369
-0.000139522
0.0823361
-8.3334e-05
-2.77149e-05
0.0866088
-0.0032888
-0.0869852
0.0862275
-0.0034926
0.0858513
-0.00362719
0.0854884
-0.0036987
0.0851445
-0.00371459
0.0848238
-0.003683
0.0845287
-0.00361217
0.0842602
-0.00350996
0.0840182
-0.00338361
0.0838019
-0.00323956
0.0836099
-0.00308336
0.0834405
-0.00291967
0.0832917
-0.00275236
0.0831617
-0.00258448
0.0830485
-0.00241847
0.0829501
-0.00225614
0.0828649
-0.00209884
0.0827913
-0.00194753
0.0827278
-0.0018028
0.082673
-0.00166502
0.0826259
-0.00153432
0.0825854
-0.00141069
0.0825507
-0.00129399
0.0825208
-0.00118398
0.0824952
-0.00108037
0.0824733
-0.000982809
0.0824546
-0.000890913
0.0824386
-0.000804286
0.082425
-0.000722515
0.0824134
-0.000645184
0.0824036
-0.000571878
0.0823954
-0.000502186
0.0823885
-0.000435699
0.0823828
-0.000372018
0.0823782
-0.000310751
0.0823746
-0.000251512
0.0823718
-0.000193922
0.0823699
-0.000137608
0.0823688
-8.22026e-05
-2.73406e-05
0.0864889
-0.00295543
-0.0868222
0.0861483
-0.00315202
0.0858093
-0.00328818
0.085479
-0.00336845
0.0851631
-0.00339868
0.0848655
-0.00338543
0.0845889
-0.00333552
0.0843345
-0.00325563
0.0841029
-0.00315202
0.0838938
-0.00303039
0.0837062
-0.00289575
0.0835389
-0.0027524
0.0833905
-0.00260395
0.0832594
-0.00245338
0.083144
-0.00230305
0.0830427
-0.00215483
0.082954
-0.00201014
0.0828764
-0.00187001
0.0828088
-0.00173518
0.0827499
-0.00160611
0.0826987
-0.00148305
0.0826541
-0.00136612
0.0826154
-0.00125528
0.0825818
-0.00115039
0.0825526
-0.00105124
0.0825274
-0.000957573
0.0825056
-0.000869082
0.0824867
-0.000785432
0.0824705
-0.000706271
0.0824565
-0.000631234
0.0824446
-0.000559952
0.0824345
-0.000492053
0.0824259
-0.000427166
0.0824188
-0.000364922
0.0824131
-0.000304958
0.0824085
-0.000246913
0.082405
-0.000190431
0.0824025
-0.00013516
0.0824011
-8.07515e-05
-2.68598e-05
0.0863732
-0.00265916
-0.0866695
0.0860682
-0.002847
0.085762
-0.00298205
0.0854612
-0.00306765
0.0851709
-0.00310834
0.0848949
-0.00310942
0.0846359
-0.00307651
0.0843955
-0.00301524
0.0841745
-0.00293104
0.083973
-0.00282888
0.0837905
-0.00271327
0.0836262
-0.00258812
0.0834791
-0.0024568
0.0833478
-0.00232212
0.0832312
-0.00218639
0.0831278
-0.00205145
0.0830364
-0.00191875
0.0829558
-0.00178939
0.0828848
-0.00166417
0.0828223
-0.00154365
0.0827675
-0.00142819
0.0827193
-0.00131798
0.0826771
-0.00121306
0.0826401