/*--------------------------------*- C++ -*----------------------------------*\
  =========                 |
  \\      /  F ield         | OpenFOAM: The Open Source CFD Toolbox
   \\    /   O peration     | Website:  https://openfoam.org
    \\  /    A nd           | Version:  6
     \\/     M anipulation  |
\*---------------------------------------------------------------------------*/
FoamFile
{
    version     2.0;
    format      ascii;
    class       volVectorField;
    location    "0";
    object      UA;
}
// * * * * * * * * * * * * * * * * * * * * * * * * * * * * * * * * * * * * * //

dimensions      [0 1 -1 0 0 0 0];

internalField   nonuniform List<vector> 
5200
(
(1.07106 -0.902868 0)
(1.05925 -0.752863 0)
(1.05016 -0.637346 0)
(1.04301 -0.546505 0)
(1.03729 -0.473782 0)
(1.03263 -0.414661 0)
(1.0288 -0.365952 0)
(1.02561 -0.325346 0)
(1.02291 -0.291141 0)
(1.02062 -0.262059 0)
(1.21142 -0.880636 0)
(1.1763 -0.734325 0)
(1.14925 -0.621653 0)
(1.12797 -0.533048 0)
(1.11094 -0.462115 0)
(1.0971 -0.404451 0)
(1.08569 -0.356941 0)
(1.07619 -0.317335 0)
(1.06818 -0.283972 0)
(1.06137 -0.255606 0)
(1.34658 -0.83672 0)
(1.289 -0.697705 0)
(1.24466 -0.590652 0)
(1.20978 -0.506466 0)
(1.18187 -0.439071 0)
(1.15917 -0.384282 0)
(1.14048 -0.339141 0)
(1.12489 -0.30151 0)
(1.11176 -0.269811 0)
(1.1006 -0.242859 0)
(1.47321 -0.772201 0)
(1.39459 -0.643906 0)
(1.33404 -0.545107 0)
(1.28643 -0.467413 0)
(1.24832 -0.405214 0)
(1.21733 -0.35465 0)
(1.1918 -0.31299 0)
(1.17052 -0.278261 0)
(1.15259 -0.249006 0)
(1.13735 -0.224133 0)
(1.58818 -0.688668 0)
(1.49046 -0.574251 0)
(1.4152 -0.48614 0)
(1.35602 -0.41685 0)
(1.30865 -0.36138 0)
(1.27013 -0.316286 0)
(1.2384 -0.279133 0)
(1.21195 -0.24816 0)
(1.18967 -0.22207 0)
(1.17072 -0.199887 0)
(1.68867 -0.588178 0)
(1.57425 -0.490457 0)
(1.48614 -0.415203 0)
(1.41685 -0.356024 0)
(1.36138 -0.308648 0)
(1.31629 -0.270134 0)
(1.27913 -0.238402 0)
(1.24816 -0.211949 0)
(1.22207 -0.189666 0)
(1.19989 -0.17072 0)
(1.7722 -0.473205 0)
(1.64391 -0.394586 0)
(1.54511 -0.334042 0)
(1.46741 -0.286431 0)
(1.40521 -0.248316 0)
(1.35465 -0.21733 0)
(1.31299 -0.191801 0)
(1.27826 -0.170519 0)
(1.24901 -0.152591 0)
(1.22413 -0.137349 0)
(1.83672 -0.34658 0)
(1.6977 -0.288999 0)
(1.59065 -0.244656 0)
(1.50647 -0.209785 0)
(1.43907 -0.181869 0)
(1.38428 -0.159175 0)
(1.33914 -0.140477 0)
(1.30151 -0.12489 0)
(1.26981 -0.111759 0)
(1.24286 -0.100596 0)
(1.88063 -0.211422 0)
(1.73432 -0.176296 0)
(1.62165 -0.149245 0)
(1.53305 -0.127973 0)
(1.46212 -0.110944 0)
(1.40445 -0.0971001 0)
(1.35694 -0.085694 0)
(1.31734 -0.0761854 0)
(1.28397 -0.0681757 0)
(1.25561 -0.0613656 0)
(1.90287 -0.0710571 0)
(1.75286 -0.0592515 0)
(1.63735 -0.0501602 0)
(1.5465 -0.0430108 0)
(1.47378 -0.0372874 0)
(1.41466 -0.0326346 0)
(1.36595 -0.0288011 0)
(1.32535 -0.0256053 0)
(1.29114 -0.0229133 0)
(1.26206 -0.0206245 0)
(0.0971338 -0.0710571 0)
(0.247138 -0.0592515 0)
(0.362654 -0.0501602 0)
(0.453496 -0.0430108 0)
(0.526219 -0.0372874 0)
(0.585339 -0.0326346 0)
(0.634048 -0.0288011 0)
(0.674654 -0.0256053 0)
(0.708859 -0.0229133 0)
(0.737941 -0.0206245 0)
(0.119365 -0.211422 0)
(0.265676 -0.176296 0)
(0.378348 -0.149245 0)
(0.466952 -0.127973 0)
(0.537885 -0.110944 0)
(0.595549 -0.0971001 0)
(0.643059 -0.085694 0)
(0.682665 -0.0761854 0)
(0.716028 -0.0681757 0)
(0.744394 -0.0613656 0)
(0.163281 -0.34658 0)
(0.302295 -0.288999 0)
(0.409348 -0.244656 0)
(0.493534 -0.209785 0)
(0.56093 -0.181869 0)
(0.615718 -0.159175 0)
(0.660859 -0.140477 0)
(0.69849 -0.12489 0)
(0.730189 -0.111759 0)
(0.757141 -0.100596 0)
(0.227799 -0.473205 0)
(0.356094 -0.394586 0)
(0.454893 -0.334042 0)
(0.532587 -0.286431 0)
(0.594786 -0.248316 0)
(0.64535 -0.21733 0)
(0.68701 -0.191801 0)
(0.721739 -0.170519 0)
(0.750994 -0.152591 0)
(0.775867 -0.137349 0)
(0.311331 -0.588178 0)
(0.425748 -0.490457 0)
(0.51386 -0.415203 0)
(0.58315 -0.356024 0)
(0.63862 -0.308648 0)
(0.683714 -0.270134 0)
(0.720867 -0.238402 0)
(0.75184 -0.211949 0)
(0.77793 -0.189666 0)
(0.800113 -0.17072 0)
(0.411821 -0.688668 0)
(0.509543 -0.574251 0)
(0.584797 -0.48614 0)
(0.643976 -0.41685 0)
(0.691352 -0.36138 0)
(0.729866 -0.316286 0)
(0.761598 -0.279133 0)
(0.788051 -0.24816 0)
(0.810335 -0.22207 0)
(0.82928 -0.199887 0)
(0.526794 -0.772201 0)
(0.605414 -0.643906 0)
(0.665958 -0.545107 0)
(0.713569 -0.467413 0)
(0.751684 -0.405214 0)
(0.78267 -0.35465 0)
(0.808199 -0.31299 0)
(0.829481 -0.278261 0)
(0.847409 -0.249006 0)
(0.862651 -0.224133 0)
(0.653419 -0.83672 0)
(0.711001 -0.697705 0)
(0.755344 -0.590652 0)
(0.790215 -0.506466 0)
(0.818131 -0.439071 0)
(0.840825 -0.384282 0)
(0.859523 -0.339141 0)
(0.87511 -0.30151 0)
(0.888241 -0.269811 0)
(0.899404 -0.242859 0)
(0.788578 -0.880636 0)
(0.823704 -0.734325 0)
(0.850754 -0.621653 0)
(0.872027 -0.533048 0)
(0.889056 -0.462115 0)
(0.9029 -0.404451 0)
(0.914306 -0.356941 0)
(0.923815 -0.317335 0)
(0.931824 -0.283972 0)
(0.938634 -0.255606 0)
(0.928943 -0.902868 0)
(0.940748 -0.752863 0)
(0.94984 -0.637346 0)
(0.956989 -0.546505 0)
(0.962713 -0.473782 0)
(0.967365 -0.414661 0)
(0.971199 -0.365952 0)
(0.974395 -0.325346 0)
(0.977087 -0.291141 0)
(0.979376 -0.262059 0)
(0.773875 -0.0169263 0)
(0.811417 -0.0128516 0)
(0.840339 -0.0099822 0)
(0.863089 -0.00790404 0)
(0.881305 -0.00636258 0)
(0.896116 -0.00519546 0)
(0.908319 -0.00429582 0)
(0.918493 -0.00359137 0)
(0.927064 -0.00303203 0)
(0.934351 -0.00258236 0)
(0.940598 -0.00221682 0)
(0.945995 -0.00191666 0)
(0.950688 -0.00166794 0)
(0.954796 -0.00146013 0)
(0.958411 -0.00128517 0)
(0.961609 -0.00113685 0)
(0.964452 -0.00101029 0)
(0.96699 -0.000901664 0)
(0.969266 -0.000807915 0)
(0.971315 -0.000726591 0)
(0.973165 -0.000655708 0)
(0.974842 -0.000593649 0)
(0.976367 -0.000539089 0)
(0.977757 -0.000490934 0)
(0.979028 -0.000448276 0)
(0.980193 -0.000410356 0)
(0.981264 -0.000376537 0)
(0.98225 -0.000346282 0)
(0.98316 -0.000319137 0)
(0.984002 -0.000294714 0)
(0.984783 -0.000272682 0)
(0.985507 -0.000252758 0)
(0.986181 -0.000234697 0)
(0.98681 -0.000218288 0)
(0.987396 -0.000203346 0)
(0.987944 -0.000189714 0)
(0.988457 -0.000177251 0)
(0.988938 -0.000165835 0)
(0.98939 -0.000155361 0)
(0.989814 -0.000145732 0)
(0.778819 -0.0504261 0)
(0.814708 -0.0383615 0)
(0.842598 -0.0298371 0)
(0.864681 -0.0236483 0)
(0.882453 -0.0190497 0)
(0.89696 -0.0155631 0)
(0.908952 -0.0128729 0)
(0.918975 -0.0107647 0)
(0.927437 -0.00908985 0)
(0.934643 -0.00774278 0)
(0.940831 -0.00664734 0)
(0.946182 -0.00574761 0)
(0.950841 -0.00500192 0)
(0.954921 -0.00437878 0)
(0.958515 -0.00385411 0)
(0.961697 -0.00340926 0)
(0.964527 -0.00302969 0)
(0.967055 -0.00270388 0)
(0.969322 -0.00242269 0)
(0.971364 -0.00217877 0)
(0.973209 -0.00196616 0)
(0.974881 -0.00178003 0)
(0.976402 -0.00161639 0)
(0.977788 -0.00147196 0)
(0.979057 -0.00134402 0)
(0.980219 -0.0012303 0)
(0.981288 -0.00112888 0)
(0.982272 -0.00103815 0)
(0.983181 -0.000956748 0)
(0.984022 -0.000883513 0)
(0.984801 -0.000817451 0)
(0.985525 -0.00075771 0)
(0.986198 -0.000703558 0)
(0.986825 -0.000654359 0)
(0.987411 -0.000609563 0)
(0.987958 -0.000568693 0)
(0.988471 -0.00053133 0)
(0.988951 -0.000497109 0)
(0.989402 -0.000465709 0)
(0.989826 -0.000436846 0)
(0.788609 -0.0828736 0)
(0.82125 -0.0632926 0)
(0.847099 -0.0493635 0)
(0.867857 -0.0392012 0)
(0.884745 -0.0316225 0)
(0.898648 -0.025861 0)
(0.910217 -0.0214063 0)
(0.919939 -0.01791 0)
(0.928182 -0.0151291 0)
(0.935228 -0.0128903 0)
(0.941295 -0.0110686 0)
(0.946556 -0.00957149 0)
(0.951145 -0.00833023 0)
(0.955172 -0.00729266 0)
(0.958724 -0.00641885 0)
(0.961873 -0.00567789 0)
(0.964676 -0.00504557 0)
(0.967183 -0.00450279 0)
(0.969434 -0.00403433 0)
(0.971461 -0.00362795 0)
(0.973295 -0.00327374 0)
(0.974958 -0.00296365 0)
(0.97647 -0.00269105 0)
(0.977851 -0.00245046 0)
(0.979113 -0.00223736 0)
(0.980271 -0.00204794 0)
(0.981336 -0.00187902 0)
(0.982317 -0.00172793 0)
(0.983222 -0.00159237 0)
(0.984061 -0.00147043 0)
(0.984838 -0.00136043 0)
(0.985559 -0.00126097 0)
(0.986231 -0.00117082 0)
(0.986856 -0.00108892 0)
(0.987441 -0.00101436 0)
(0.987987 -0.00094633 0)
(0.988498 -0.000884146 0)
(0.988977 -0.000827194 0)
(0.989427 -0.00077494 0)
(0.989851 -0.000726912 0)
(0.803055 -0.113588 0)
(0.830964 -0.0872643 0)
(0.85381 -0.0683435 0)
(0.872606 -0.054435 0)
(0.888178 -0.0440047 0)
(0.901177 -0.0360425 0)
(0.912114 -0.029867 0)
(0.921384 -0.0250087 0)
(0.9293 -0.0211374 0)
(0.936104 -0.0180167 0)
(0.941992 -0.0154745 0)
(0.947116 -0.0133837 0)
(0.951601 -0.0116492 0)
(0.955548 -0.0101987 0)
(0.959037 -0.0089767 0)
(0.962136 -0.00794025 0)
(0.9649 -0.00705565 0)
(0.967375 -0.00629623 0)
(0.9696 -0.00564076 0)
(0.971607 -0.00507215 0)
(0.973423 -0.00457656 0)
(0.975072 -0.00414271 0)
(0.976573 -0.00376133 0)
(0.977944 -0.00342478 0)
(0.979198 -0.00312669 0)
(0.980349 -0.00286175 0)
(0.981407 -0.00262552 0)
(0.982383 -0.00241423 0)
(0.983284 -0.0022247 0)
(0.984119 -0.00205421 0)
(0.984892 -0.00190045 0)
(0.985611 -0.00176143 0)
(0.986279 -0.00163543 0)
(0.986903 -0.00152098 0)
(0.987485 -0.00141678 0)
(0.988029 -0.00132174 0)
(0.988539 -0.00123486 0)
(0.989017 -0.00115531 0)
(0.989465 -0.00108232 0)
(0.989887 -0.00101524 0)
(0.821873 -0.14192 0)
(0.843732 -0.109904 0)
(0.862684 -0.0865601 0)
(0.878909 -0.0692218 0)
(0.892745 -0.0561198 0)
(0.904547 -0.0460611 0)
(0.914642 -0.0382263 0)
(0.923311 -0.0320425 0)
(0.930789 -0.027103 0)
(0.937272 -0.0231137 0)
(0.942919 -0.0198593 0)
(0.947861 -0.01718 0)
(0.952208 -0.0149554 0)
(0.956047 -0.0130939 0)
(0.959452 -0.0115251 0)
(0.962485 -0.010194 0)
(0.965197 -0.00905771 0)
(0.96763 -0.00808211 0)
(0.969821 -0.00723999 0)
(0.9718 -0.00650946 0)
(0.973594 -0.00587277 0)
(0.975224 -0.00531542 0)
(0.976709 -0.00482553 0)
(0.978067 -0.00439326 0)
(0.97931 -0.00401044 0)
(0.980452 -0.00367024 0)
(0.981502 -0.00336695 0)
(0.982471 -0.00309571 0)
(0.983366 -0.00285244 0)
(0.984195 -0.00263364 0)
(0.984964 -0.00243634 0)
(0.985679 -0.00225797 0)
(0.986344 -0.00209634 0)
(0.986965 -0.00194954 0)
(0.987544 -0.00181592 0)
(0.988085 -0.00169404 0)
(0.988593 -0.00158266 0)
(0.989068 -0.00148067 0)
(0.989515 -0.00138711 0)
(0.989935 -0.00130114 0)
(0.844691 -0.167261 0)
(0.859399 -0.130849 0)
(0.873656 -0.103798 0)
(0.886742 -0.0834334 0)
(0.898437 -0.0678908 0)
(0.908754 -0.0558702 0)
(0.917801 -0.0464553 0)
(0.925718 -0.0389935 0)
(0.93265 -0.0330142 0)
(0.93873 -0.0281736 0)
(0.944076 -0.0242177 0)
(0.948791 -0.0209563 0)
(0.952963 -0.0182456 0)
(0.956668 -0.0159757 0)
(0.959968 -0.0140616 0)
(0.962919 -0.0124369 0)
(0.965565 -0.0110497 0)
(0.967946 -0.00985842 0)
(0.970095 -0.00883009 0)
(0.97204 -0.00793801 0)
(0.973805 -0.00716056 0)
(0.975412 -0.00648005 0)
(0.976878 -0.00588197 0)
(0.978219 -0.0053543 0)
(0.979449 -0.00488707 0)
(0.980579 -0.00447193 0)
(0.98162 -0.00410188 0)
(0.98258 -0.00377101 0)
(0.983468 -0.00347431 0)
(0.984291 -0.0032075 0)
(0.985054 -0.00296695 0)
(0.985764 -0.00274952 0)
(0.986425 -0.00255253 0)
(0.987041 -0.00237365 0)
(0.987617 -0.00221085 0)
(0.988155 -0.00206239 0)
(0.98866 -0.00192673 0)
(0.989133 -0.00180253 0)
(0.989577 -0.00168861 0)
(0.989995 -0.00158395 0)
(0.871058 -0.18906 0)
(0.877769 -0.149751 0)
(0.886646 -0.119846 0)
(0.896071 -0.0969412 0)
(0.905243 -0.0792403 0)
(0.913796 -0.0654229 0)
(0.92159 -0.0545257 0)
(0.928607 -0.0458442 0)
(0.934882 -0.0388601 0)
(0.940477 -0.0331894 0)
(0.945461 -0.0285447 0)
(0.949902 -0.024709 0)
(0.953865 -0.021517 0)
(0.957409 -0.0188416 0)
(0.960584 -0.016584 0)
(0.963435 -0.014667 0)
(0.966004 -0.0130296 0)
(0.968322 -0.0116233 0)
(0.97042 -0.0104092 0)
(0.972324 -0.00935602 0)
(0.974056 -0.0084382 0)
(0.975635 -0.00763491 0)
(0.977078 -0.00692902 0)
(0.9784 -0.00630634 0)
(0.979614 -0.00575508 0)
(0.98073 -0.00526538 0)
(0.981759 -0.00482896 0)
(0.98271 -0.00443883 0)
(0.983589 -0.00408906 0)
(0.984404 -0.00377461 0)
(0.985161 -0.00349117 0)
(0.985865 -0.00323503 0)
(0.986521 -0.00300301 0)
(0.987132 -0.00279236 0)
(0.987704 -0.0026007 0)
(0.988239 -0.00242595 0)
(0.98874 -0.00226629 0)
(0.98921 -0.00212015 0)
(0.989651 -0.00198613 0)
(0.990067 -0.00186302 0)
(0.900446 -0.206827 0)
(0.89861 -0.166281 0)
(0.901556 -0.134491 0)
(0.906861 -0.109616 0)
(0.913151 -0.0900899 0)
(0.919668 -0.0746723 0)
(0.92601 -0.0624093 0)
(0.931977 -0.0525776 0)
(0.937485 -0.0446304 0)
(0.942513 -0.0381545 0)
(0.947072 -0.032836 0)
(0.951193 -0.028435 0)
(0.954912 -0.0247671 0)
(0.958267 -0.0216895 0)
(0.961296 -0.0190905 0)
(0.964033 -0.0168824 0)
(0.96651 -0.0149957 0)
(0.968756 -0.013375 0)
(0.970796 -0.0119757 0)
(0.972652 -0.0107618 0)
(0.974345 -0.00970403 0)
(0.975893 -0.00877838 0)
(0.977309 -0.0079651 0)
(0.978609 -0.00724785 0)
(0.979804 -0.006613 0)
(0.980905 -0.00604919 0)
(0.981921 -0.00554684 0)
(0.982859 -0.00509789 0)
(0.983729 -0.0046955 0)
(0.984535 -0.00433383 0)
(0.985284 -0.0040079 0)
(0.985982 -0.00371345 0)
(0.986631 -0.0034468 0)
(0.987238 -0.00320477 0)
(0.987805 -0.0029846 0)
(0.988335 -0.0027839 0)
(0.988832 -0.00260058 0)
(0.989299 -0.00243281 0)
(0.989737 -0.002279 0)
(0.990149 -0.00213772 0)
(0.932261 -0.220147 0)
(0.921653 -0.180127 0)
(0.918272 -0.147529 0)
(0.919066 -0.121327 0)
(0.922147 -0.10036 0)
(0.92637 -0.0835709 0)
(0.931061 -0.0700783 0)
(0.935829 -0.0591773 0)
(0.940459 -0.0503153 0)
(0.944836 -0.0430631 0)
(0.948909 -0.0370879 0)
(0.952663 -0.0321318 0)
(0.956102 -0.0279941 0)
(0.959242 -0.0245178 0)
(0.962103 -0.0215795 0)
(0.964709 -0.0190816 0)
(0.967082 -0.0169464 0)
(0.969245 -0.0151119 0)
(0.971219 -0.0135279 0)
(0.973022 -0.0121537 0)
(0.974671 -0.0109565 0)
(0.976183 -0.00990892 0)
(0.97757 -0.00898872 0)
(0.978845 -0.00817737 0)
(0.980019 -0.00745943 0)
(0.981102 -0.006822 0)
(0.982102 -0.00625423 0)
(0.983028 -0.00574697 0)
(0.983886 -0.00529244 0)
(0.984683 -0.00488404 0)
(0.985424 -0.00451611 0)
(0.986113 -0.00418382 0)
(0.986756 -0.00388297 0)
(0.987357 -0.00360998 0)
(0.987918 -0.00336172 0)
(0.988444 -0.00313547 0)
(0.988937 -0.00292887 0)
(0.989399 -0.00273984 0)
(0.989834 -0.00256657 0)
(0.990243 -0.00240746 0)
(0.965852 -0.22869 0)
(0.946592 -0.191004 0)
(0.936662 -0.158756 0)
(0.932637 -0.131944 0)
(0.932213 -0.109971 0)
(0.933897 -0.0920709 0)
(0.936743 -0.0775048 0)
(0.940165 -0.0656278 0)
(0.943804 -0.0559063 0)
(0.947446 -0.0479103 0)
(0.95097 -0.0412977 0)
(0.954309 -0.0357977 0)
(0.957432 -0.0311965 0)
(0.960329 -0.0273252 0)
(0.963002 -0.0240497 0)
(0.96546 -0.0212633 0)
(0.967718 -0.0188805 0)
(0.969789 -0.0168326 0)
(0.971688 -0.0150643 0)
(0.973432 -0.0135304 0)
(0.975032 -0.0121941 0)
(0.976504 -0.0110251 0)
(0.977858 -0.00999843 0)
(0.979105 -0.0090935 0)
(0.980256 -0.008293 0)
(0.98132 -0.00758251 0)
(0.982304 -0.00694988 0)
(0.983215 -0.00638486 0)
(0.984061 -0.00587876 0)
(0.984847 -0.00542417 0)
(0.985578 -0.00501478 0)
(0.98626 -0.00464516 0)
(0.986895 -0.00431063 0)
(0.987489 -0.00400717 0)
(0.988045 -0.00373128 0)
(0.988565 -0.00347993 0)
(0.989053 -0.00325046 0)
(0.989511 -0.00304057 0)
(0.989942 -0.00284823 0)
(0.990347 -0.00267165 0)
(0.996369 -0.219185 0)
(0.971978 -0.187962 0)
(0.957213 -0.159523 0)
(0.949055 -0.134795 0)
(0.945264 -0.113838 0)
(0.944273 -0.0963222 0)
(0.945021 -0.0817783 0)
(0.946804 -0.0697281 0)
(0.949162 -0.0597371 0)
(0.951802 -0.051433 0)
(0.954537 -0.0445063 0)
(0.957252 -0.038704 0)
(0.959878 -0.0338212 0)
(0.962377 -0.0296923 0)
(0.964729 -0.0261842 0)
(0.966927 -0.0231892 0)
(0.968971 -0.0206202 0)
(0.970867 -0.0184065 0)
(0.972621 -0.0164907 0)
(0.974244 -0.0148256 0)
(0.975743 -0.0133724 0)
(0.977129 -0.0120993 0)
(0.978411 -0.0109799 0)
(0.979597 -0.00999193 0)
(0.980696 -0.00911713 0)
(0.981714 -0.00833999 0)
(0.982659 -0.00764745 0)
(0.983537 -0.00702848 0)
(0.984353 -0.0064737 0)
(0.985113 -0.00597511 0)
(0.985822 -0.00552585 0)
(0.986483 -0.00512003 0)
(0.987101 -0.0047526 0)
(0.98768 -0.00441916 0)
(0.988221 -0.0041159 0)
(0.988729 -0.00383953 0)
(0.989206 -0.00358715 0)
(0.989654 -0.00335623 0)
(0.990075 -0.00314456 0)
(0.990472 -0.0029502 0)
(1.01723 -0.196 0)
(0.992369 -0.172759 0)
(0.975765 -0.150139 0)
(0.965274 -0.129467 0)
(0.959125 -0.111247 0)
(0.955972 -0.0955279 0)
(0.954832 -0.0821307 0)
(0.955012 -0.0707865 0)
(0.956031 -0.0612072 0)
(0.957562 -0.0531206 0)
(0.959381 -0.0462853 0)
(0.96134 -0.0404938 0)
(0.963343 -0.0355716 0)
(0.965325 -0.0313735 0)
(0.967249 -0.0277796 0)
(0.96909 -0.0246908 0)
(0.970836 -0.0220259 0)
(0.972481 -0.0197176 0)
(0.974025 -0.0177106 0)
(0.975469 -0.0159589 0)
(0.976816 -0.0144245 0)
(0.978073 -0.0130758 0)
(0.979244 -0.0118861 0)
(0.980334 -0.0108334 0)
(0.98135 -0.00989887 0)
(0.982297 -0.00906676 0)
(0.98318 -0.0083237 0)
(0.984003 -0.00765831 0)
(0.984772 -0.00706086 0)
(0.985491 -0.00652305 0)
(0.986163 -0.00603773 0)
(0.986792 -0.00559873 0)
(0.987381 -0.00520075 0)
(0.987934 -0.00483915 0)
(0.988453 -0.00450993 0)
(0.98894 -0.00420958 0)
(0.989399 -0.00393504 0)
(0.989831 -0.00368363 0)
(0.990238 -0.00345298 0)
(0.990622 -0.00324102 0)
(1.03187 -0.173861 0)
(1.00791 -0.157089 0)
(0.990752 -0.139546 0)
(0.978972 -0.122661 0)
(0.971254 -0.107169 0)
(0.966507 -0.0933611 0)
(0.963882 -0.0812741 0)
(0.962738 -0.0708079 0)
(0.962608 -0.0618013 0)
(0.963157 -0.0540748 0)
(0.964145 -0.0474528 0)
(0.965406 -0.0417744 0)
(0.966821 -0.0368979 0)
(0.96831 -0.0327009 0)
(0.969819 -0.029079 0)
(0.97131 -0.0259443 0)
(0.972761 -0.0232227 0)
(0.974156 -0.0208522 0)
(0.975488 -0.0187808 0)
(0.97675 -0.0169649 0)
(0.977943 -0.0153678 0)
(0.979067 -0.0139589 0)
(0.980123 -0.0127121 0)
(0.981115 -0.0116055 0)
(0.982045 -0.0106205 0)
(0.982917 -0.00974131 0)
(0.983735 -0.00895439 0)
(0.984502 -0.00824826 0)
(0.985221 -0.00761302 0)
(0.985895 -0.00704018 0)
(0.986529 -0.00652241 0)
(0.987123 -0.00605336 0)
(0.987682 -0.00562753 0)
(0.988208 -0.00524014 0)
(0.988703 -0.004887 0)
(0.989169 -0.00456448 0)
(0.989608 -0.00426936 0)
(0.990023 -0.00399883 0)
(0.990414 -0.00375042 0)
(0.990784 -0.00352194 0)
(1.04173 -0.153492 0)
(1.01944 -0.141795 0)
(1.00259 -0.128514 0)
(0.990298 -0.115003 0)
(0.981653 -0.102079 0)
(0.975812 -0.0901718 0)
(0.972073 -0.0794596 0)
(0.969876 -0.0699693 0)
(0.968793 -0.0616428 0)
(0.968499 -0.0543803 0)
(0.968754 -0.0480664 0)
(0.969383 -0.0425848 0)
(0.970257 -0.0378259 0)
(0.971284 -0.0336911 0)
(0.972399 -0.0300929 0)
(0.973555 -0.0269555 0)
(0.974719 -0.0242136 0)
(0.975869 -0.0218114 0)
(0.976991 -0.0197012 0)
(0.978073 -0.0178425 0)
(0.979111 -0.0162009 0)
(0.9801 -0.014747 0)
(0.981041 -0.0134559 0)
(0.981932 -0.0123063 0)
(0.982774 -0.0112801 0)
(0.98357 -0.0103617 0)
(0.984321 -0.00953767 0)
(0.985028 -0.0087966 0)
(0.985696 -0.00812855 0)
(0.986324 -0.00752499 0)
(0.986917 -0.00697849 0)
(0.987476 -0.00648261 0)
(0.988003 -0.00603175 0)
(0.9885 -0.00562101 0)
(0.98897 -0.0052461 0)
(0.989413 -0.00490328 0)
(0.989832 -0.00458923 0)
(0.990228 -0.00430104 0)
(0.990603 -0.00403616 0)
(0.990958 -0.0037923 0)
(1.04802 -0.13519 0)
(1.02775 -0.127379 0)
(1.01173 -0.117574 0)
(0.999487 -0.106971 0)
(0.990414 -0.0963729 0)
(0.983892 -0.0862678 0)
(0.979367 -0.0769197 0)
(0.976369 -0.0684429 0)
(0.97452 -0.0608572 0)
(0.973523 -0.0541278 0)
(0.973147 -0.048191 0)
(0.973218 -0.0429706 0)
(0.973605 -0.0383877 0)
(0.974208 -0.0343664 0)
(0.974956 -0.0308365 0)
(0.975795 -0.0277348 0)
(0.976686 -0.0250054 0)
(0.9776 -0.0225994 0)
(0.978517 -0.0204741 0)
(0.979422 -0.0185928 0)
(0.980307 -0.0169237 0)
(0.981163 -0.0154395 0)
(0.981987 -0.0141166 0)
(0.982777 -0.0129348 0)
(0.983531 -0.0118765 0)
(0.984249 -0.0109267 0)
(0.984931 -0.0100723 0)
(0.985579 -0.00930207 0)
(0.986193 -0.00860624 0)
(0.986775 -0.0079763 0)
(0.987326 -0.00740485 0)
(0.987847 -0.00688544 0)
(0.988341 -0.00641241 0)
(0.988809 -0.00598084 0)
(0.989252 -0.00558636 0)
(0.989671 -0.00522518 0)
(0.990069 -0.0048939 0)
(0.990446 -0.00458957 0)
(0.990803 -0.00430955 0)
(0.991142 -0.00405149 0)
(1.05168 -0.118991 0)
(1.03353 -0.114102 0)
(1.01864 -0.107071 0)
(1.00681 -0.0989118 0)
(0.997679 -0.0903591 0)
(0.990805 -0.0819067 0)
(0.985768 -0.0738602 0)
(0.982191 -0.066388 0)
(0.979752 -0.0595655 0)
(0.978185 -0.053408 0)
(0.97728 -0.0478939 0)
(0.976871 -0.0429816 0)
(0.976827 -0.0386196 0)
(0.977049 -0.0347532 0)
(0.977462 -0.0313287 0)
(0.978006 -0.0282956 0)
(0.97864 -0.0256074 0)
(0.979329 -0.0232226 0)
(0.98005 -0.0211038 0)
(0.980784 -0.0192186 0)
(0.981519 -0.0175381 0)
(0.982245 -0.0160374 0)
(0.982954 -0.0146946 0)
(0.983643 -0.0134907 0)
(0.984309 -0.0124092 0)
(0.984949 -0.0114356 0)
(0.985562 -0.0105575 0)
(0.986149 -0.00976387 0)
(0.986709 -0.00904525 0)
(0.987243 -0.00839327 0)
(0.987752 -0.00780066 0)
(0.988235 -0.00726102 0)
(0.988695 -0.00676873 0)
(0.989132 -0.00631887 0)
(0.989548 -0.00590707 0)
(0.989943 -0.0055295 0)
(0.990318 -0.00518276 0)
(0.990675 -0.00486382 0)
(0.991015 -0.00457003 0)
(0.991337 -0.00429899 0)
(1.05346 -0.10479 0)
(1.03736 -0.102063 0)
(1.02373 -0.0972107 0)
(1.01255 -0.0910651 0)
(1.00362 -0.0842715 0)
(0.99664 -0.0772965 0)
(0.991316 -0.0704555 0)
(0.987349 -0.0639463 0)
(0.984473 -0.05788 0)
(0.982461 -0.052308 0)
(0.981125 -0.0472421 0)
(0.98031 -0.0426687 0)
(0.979894 -0.0385599 0)
(0.97978 -0.0348802 0)
(0.97989 -0.031591 0)
(0.980166 -0.0286538 0)
(0.980561 -0.0260314 0)
(0.98104 -0.0236895 0)
(0.981576 -0.0215965 0)
(0.982147 -0.0197242 0)
(0.982737 -0.018047 0)
(0.983336 -0.0165426 0)
(0.983933 -0.0151911 0)
(0.984524 -0.0139748 0)
(0.985102 -0.0128785 0)
(0.985664 -0.0118885 0)
(0.986209 -0.0109931 0)
(0.986735 -0.0101817 0)
(0.987241 -0.00944511 0)
(0.987727 -0.00877538 0)
(0.988192 -0.00816536 0)
(0.988637 -0.00760879 0)
(0.989062 -0.00710014 0)
(0.989468 -0.00663455 0)
(0.989856 -0.00620768 0)
(0.990226 -0.00581572 0)
(0.990578 -0.00545527 0)
(0.990915 -0.00512331 0)
(0.991236 -0.00481714 0)
(0.991542 -0.00453437 0)
(1.05391 -0.0924129 0)
(1.03972 -0.0912615 0)
(1.02738 -0.0880963 0)
(1.01696 -0.0835855 0)
(1.0084 -0.0782787 0)
(1.0015 -0.0725982 0)
(0.996069 -0.0668491 0)
(0.991868 -0.0612393 0)
(0.98869 -0.0559005 0)
(0.986343 -0.0509085 0)
(0.984665 -0.0462993 0)
(0.983517 -0.0420818 0)
(0.982786 -0.0382476 0)
(0.982379 -0.0347774 0)
(0.982222 -0.0316464 0)
(0.982256 -0.0288268 0)
(0.982434 -0.0262906 0)
(0.982719 -0.0240102 0)
(0.983081 -0.0219597 0)
(0.983497 -0.0201151 0)
(0.983951 -0.0184545 0)
(0.984428 -0.0169581 0)
(0.984917 -0.0156081 0)
(0.985411 -0.0143885 0)
(0.985904 -0.0132853 0)
(0.986391 -0.012286 0)
(0.986868 -0.0113793 0)
(0.987333 -0.0105555 0)
(0.987785 -0.00980575 0)
(0.988222 -0.00912243 0)
(0.988644 -0.00849867 0)
(0.98905 -0.00792841 0)
(0.98944 -0.00740627 0)
(0.989815 -0.00692747 0)
(0.990174 -0.00648779 0)
(0.990519 -0.00608344 0)
(0.990848 -0.00571105 0)
(0.991164 -0.00536763 0)
(0.991465 -0.0050505 0)
(0.991754 -0.00475726 0)
(1.05342 -0.0816586 0)
(1.04097 -0.0816386 0)
(1.02987 -0.079764 0)
(1.02028 -0.076564 0)
(1.01219 -0.0724967 0)
(1.00551 -0.0679327 0)
(1.0001 -0.0631549 0)
(0.995788 -0.0583684 0)
(0.992419 -0.0537139 0)
(0.989834 -0.0492817 0)
(0.987895 -0.0451247 0)
(0.98648 -0.0412687 0)
(0.985488 -0.0377206 0)
(0.984832 -0.0344749 0)
(0.984443 -0.0315185 0)
(0.984263 -0.0288333 0)
(0.984245 -0.0263994 0)
(0.984352 -0.0241958 0)
(0.984554 -0.0222019 0)
(0.984827 -0.020398 0)
(0.985151 -0.0187656 0)
(0.985512 -0.0172876 0)
(0.985898 -0.0159484 0)
(0.9863 -0.0147339 0)
(0.98671 -0.0136312 0)
(0.987122 -0.012629 0)
(0.987533 -0.0117169 0)
(0.987939 -0.0108857 0)
(0.988337 -0.0101274 0)
(0.988727 -0.00943449 0)
(0.989105 -0.00880056 0)
(0.989473 -0.00821976 0)
(0.989828 -0.00768693 0)
(0.990171 -0.00719743 0)
(0.990502 -0.00674714 0)
(0.99082 -0.00633237 0)
(0.991126 -0.00594981 0)
(0.991421 -0.00559651 0)
(0.991703 -0.00526983 0)
(0.991974 -0.00496737 0)
(1.05231 -0.0723268 0)
(1.0414 -0.0731043 0)
(1.03147 -0.0722058 0)
(1.02271 -0.0700457 0)
(1.01515 -0.0669999 0)
(1.00877 -0.0633868 0)
(1.00347 -0.0594608 0)
(0.999156 -0.0554161 0)
(0.995688 -0.0513936 0)
(0.992947 -0.047491 0)
(0.990817 -0.0437717 0)
(0.989196 -0.0402734 0)
(0.987993 -0.037015 0)
(0.98713 -0.0340019 0)
(0.986542 -0.0312307 0)
(0.986175 -0.0286919 0)
(0.985983 -0.0263727 0)
(0.98593 -0.024258 0)
(0.985986 -0.0223323 0)
(0.986126 -0.02058 0)
(0.98633 -0.0189859 0)
(0.986583 -0.0175355 0)
(0.986871 -0.0162155 0)
(0.987184 -0.0150135 0)
(0.987514 -0.0139181 0)
(0.987855 -0.012919 0)
(0.988201 -0.0120069 0)
(0.988549 -0.0111733 0)
(0.988895 -0.0104106 0)
(0.989237 -0.00971193 0)
(0.989574 -0.00907122 0)
(0.989902 -0.00848294 0)
(0.990223 -0.00794212 0)
(0.990534 -0.00744435 0)
(0.990837 -0.00698562 0)
(0.991129 -0.00656237 0)
(0.991412 -0.00617138 0)
(0.991684 -0.00580976 0)
(0.991947 -0.00547492 0)
(0.9922 -0.0051645 0)
(1.05079 -0.0642293 0)
(1.04123 -0.0655557 0)
(1.03238 -0.0653867 0)
(1.02441 -0.0640438 0)
(1.01741 -0.061832 0)
(1.01138 -0.0590202 0)
(1.00628 -0.0558325 0)
(1.00202 -0.0524472 0)
(0.99853 -0.0490001 0)
(0.9957 -0.0455903 0)
(0.993442 -0.0422871 0)
(0.991667 -0.039136 0)
(0.990298 -0.0361644 0)
(0.989266 -0.0333862 0)
(0.988511 -0.0308059 0)
(0.987984 -0.0284213 0)
(0.98764 -0.0262255 0)
(0.987445 -0.0242091 0)
(0.987369 -0.0223609 0)
(0.987388 -0.0206691 0)
(0.987481 -0.0191216 0)
(0.987632 -0.0177068 0)
(0.987828 -0.0164133 0)
(0.988058 -0.0152305 0)
(0.988312 -0.0141484 0)
(0.988585 -0.013158 0)
(0.988869 -0.0122508 0)
(0.989161 -0.0114191 0)
(0.989456 -0.0106561 0)
(0.989752 -0.00995533 0)
(0.990046 -0.00931109 0)
(0.990337 -0.00871822 0)
(0.990623 -0.00817204 0)
(0.990903 -0.00766832 0)
(0.991177 -0.00720326 0)
(0.991444 -0.00677341 0)
(0.991703 -0.00637569 0)
(0.991954 -0.00600727 0)
(0.992197 -0.00566565 0)
(0.992432 -0.00534852 0)
(1.04901 -0.0571963 0)
(1.04064 -0.0588882 0)
(1.03276 -0.0592569 0)
(1.02555 -0.0585503 0)
(1.0191 -0.0570135 0)
(1.01345 -0.0548711 0)
(1.00858 -0.0523171 0)
(1.00444 -0.0495118 0)
(1.00098 -0.0465822 0)
(0.998119 -0.0436251 0)
(0.995782 -0.0407117 0)
(0.993901 -0.037892 0)
(0.992407 -0.0351992 0)
(0.99124 -0.0326535 0)
(0.990348 -0.0302657 0)
(0.989685 -0.0280392 0)
(0.98921 -0.0259727 0)
(0.98889 -0.0240611 0)
(0.988697 -0.0222974 0)
(0.988606 -0.0206732 0)
(0.988598 -0.0191794 0)
(0.988656 -0.0178068 0)
(0.988766 -0.016546 0)
(0.988917 -0.0153882 0)
(0.9891 -0.0143248 0)
(0.989307 -0.013348 0)
(0.989532 -0.0124502 0)
(0.98977 -0.0116247 0)
(0.990016 -0.010865 0)
(0.990267 -0.0101655 0)
(0.99052 -0.00952078 0)
(0.990774 -0.00892607 0)
(0.991027 -0.008377 0)
(0.991276 -0.00786958 0)
(0.991522 -0.0074002 0)
(0.991763 -0.00696558 0)
(0.991998 -0.00656277 0)
(0.992228 -0.00618905 0)
(0.992452 -0.00584198 0)
(0.992669 -0.00551935 0)
(1.04709 -0.0510783 0)
(1.03975 -0.053001 0)
(1.03274 -0.0537593 0)
(1.02623 -0.0535434 0)
(1.02032 -0.0525489 0)
(1.01506 -0.0509615 0)
(1.01045 -0.048947 0)
(1.00647 -0.0466473 0)
(1.00308 -0.0441785 0)
(1.00023 -0.0416326 0)
(0.997856 -0.0390799 0)
(0.995906 -0.0365723 0)
(0.994322 -0.0341466 0)
(0.993053 -0.0318275 0)
(0.992051 -0.0296302 0)
(0.991275 -0.0275629 0)
(0.990689 -0.0256285 0)
(0.990261 -0.0238259 0)
(0.989964 -0.0221517 0)
(0.989775 -0.0206006 0)
(0.989676 -0.019166 0)
(0.989648 -0.0178409 0)
(0.98968 -0.0166182 0)
(0.989758 -0.0154904 0)
(0.989874 -0.0144504 0)
(0.99002 -0.0134916 0)
(0.990188 -0.0126073 0)
(0.990374 -0.0117915 0)
(0.990573 -0.0110387 0)
(0.990781 -0.0103435 0)
(0.990995 -0.00970108 0)
(0.991213 -0.00910711 0)
(0.991432 -0.00855748 0)
(0.991651 -0.00804848 0)
(0.991869 -0.00757671 0)
(0.992085 -0.00713907 0)
(0.992297 -0.00673275 0)
(0.992506 -0.00635516 0)
(0.99271 -0.00600396 0)
(0.992909 -0.00567701 0)
(1.0451 -0.0457454 0)
(1.03866 -0.0478009 0)
(1.03242 -0.0488354 0)
(1.02656 -0.0489939 0)
(1.02116 -0.0484317 0)
(1.01628 -0.0473011 0)
(1.01194 -0.0457428 0)
(1.00814 -0.0438804 0)
(1.00486 -0.0418185 0)
(1.00205 -0.0396426 0)
(0.999682 -0.0374203 0)
(0.997697 -0.0352034 0)
(0.996054 -0.0330306 0)
(0.994709 -0.0309292 0)
(0.993621 -0.0289178 0)
(0.992754 -0.0270081 0)
(0.992075 -0.0252064 0)
(0.991555 -0.0235152 0)
(0.991168 -0.0219337 0)
(0.990893 -0.0204593 0)
(0.990711 -0.0190881 0)
(0.990607 -0.0178149 0)
(0.990566 -0.0166345 0)
(0.990577 -0.0155409 0)
(0.990631 -0.0145284 0)
(0.990719 -0.0135913 0)
(0.990834 -0.012724 0)
(0.990971 -0.0119214 0)
(0.991124 -0.0111784 0)
(0.991291 -0.0104903 0)
(0.991467 -0.00985292 0)
(0.99165 -0.00926208 0)
(0.991837 -0.00871408 0)
(0.992027 -0.00820549 0)
(0.992218 -0.00773315 0)
(0.992409 -0.00729415 0)
(0.992598 -0.00688583 0)
(0.992786 -0.00650575 0)
(0.992971 -0.00615167 0)
(0.993153 -0.00582155 0)
(1.0431 -0.0410862 0)
(1.03743 -0.0432036 0)
(1.03189 -0.0444276 0)
(1.0266 -0.0448682 0)
(1.02168 -0.0446479 0)
(1.01717 -0.043891 0)
(1.01312 -0.0427159 0)
(1.00952 -0.0412293 0)
(1.00636 -0.0395242 0)
(1.00363 -0.0376787 0)
(1.00128 -0.0357564 0)
(0.999287 -0.0338079 0)
(0.99761 -0.0318719 0)
(0.996214 -0.0299774 0)
(0.995062 -0.0281451 0)
(0.994124 -0.0263894 0)
(0.993368 -0.0247193 0)
(0.992771 -0.0231396 0)
(0.992307 -0.0216524 0)
(0.991956 -0.0202573 0)
(0.991702 -0.0189524 0)
(0.991528 -0.0177344 0)
(0.991422 -0.0165996 0)
(0.991371 -0.0155437 0)
(0.991367 -0.014562 0)
(0.991402 -0.0136499 0)
(0.991467 -0.0128028 0)
(0.991558 -0.0120162 0)
(0.991669 -0.0112858 0)
(0.991796 -0.0106075 0)
(0.991935 -0.00997739 0)
(0.992085 -0.00939186 0)
(0.992241 -0.00884752 0)
(0.992402 -0.0083412 0)
(0.992567 -0.00787 0)
(0.992734 -0.0074312 0)
(0.992901 -0.00702233 0)
(0.993068 -0.00664107 0)
(0.993234 -0.00628531 0)
(0.993398 -0.00595312 0)
(1.04113 -0.0370051 0)
(1.03613 -0.0391339 0)
(1.0312 -0.0404817 0)
(1.02644 -0.0411313 0)
(1.02195 -0.0411792 0)
(1.0178 -0.0407262 0)
(1.01402 -0.0398711 0)
(1.01063 -0.0387056 0)
(1.00761 -0.0373114 0)
(1.00497 -0.0357589 0)
(1.00267 -0.0341072 0)
(1.00069 -0.0324042 0)
(0.999002 -0.0306881 0)
(0.997575 -0.0289884 0)
(0.996378 -0.0273271 0)
(0.995385 -0.0257201 0)
(0.994569 -0.0241786 0)
(0.993908 -0.0227095 0)
(0.993378 -0.0213169 0)
(0.992963 -0.0200022 0)
(0.992645 -0.0187654 0)
(0.99241 -0.0176049 0)
(0.992245 -0.0165184 0)
(0.992138 -0.0155028 0)
(0.992082 -0.0145546 0)
(0.992066 -0.0136702 0)
(0.992085 -0.0128459 0)
(0.992133 -0.012078 0)
(0.992203 -0.0113626 0)
(0.992293 -0.0106963 0)