/*--------------------------------*- C++ -*----------------------------------*\
  =========                 |
  \\      /  F ield         | OpenFOAM: The Open Source CFD Toolbox
   \\    /   O peration     | Website:  https://openfoam.org
    \\  /    A nd           | Version:  6
     \\/     M anipulation  |
\*---------------------------------------------------------------------------*/
FoamFile
{
    version     2.0;
    format      ascii;
    class       volScalarField;
    location    "10";
    object      T;
}
// * * * * * * * * * * * * * * * * * * * * * * * * * * * * * * * * * * * * * //

dimensions      [0 0 0 1 0 0 0];

internalField   nonuniform List<scalar> 
5000
(
0.737237
0.737004
0.736538
0.735839
0.734907
0.733743
0.732349
0.730725
0.728874
0.726798
0.724497
0.721975
0.719234
0.716277
0.713106
0.709725
0.706137
0.702346
0.698355
0.694168
0.689789
0.685222
0.680473
0.675546
0.670445
0.665176
0.659743
0.654153
0.64841
0.642521
0.63649
0.630325
0.624031
0.617614
0.611081
0.604438
0.597692
0.590849
0.583916
0.5769
0.569808
0.562647
0.555423
0.548145
0.54082
0.533454
0.526055
0.51863
0.511186
0.503732
0.496274
0.488819
0.481376
0.473951
0.466552
0.459186
0.45186
0.444582
0.437359
0.430198
0.423106
0.41609
0.409157
0.402314
0.395568
0.388925
0.382392
0.375975
0.369681
0.363516
0.357485
0.351596
0.345853
0.340263
0.334831
0.329561
0.324461
0.319533
0.314784
0.310218
0.305839
0.301652
0.297661
0.29387
0.290282
0.286901
0.28373
0.280773
0.278032
0.27551
0.27321
0.271133
0.269282
0.267659
0.266265
0.265101
0.264169
0.263469
0.263003
0.26277
0.737238
0.737006
0.73654
0.73584
0.734908
0.733744
0.73235
0.730727
0.728876
0.726799
0.724499
0.721977
0.719236
0.716278
0.713108
0.709727
0.706139
0.702347
0.698356
0.694169
0.68979
0.685224
0.680474
0.675547
0.670446
0.665177
0.659744
0.654154
0.648411
0.642522
0.636491
0.630326
0.624032
0.617615
0.611082
0.604439
0.597692
0.590849
0.583916
0.5769
0.569808
0.562647
0.555424
0.548146
0.54082
0.533454
0.526055
0.51863
0.511186
0.503732
0.496274
0.488819
0.481376
0.473951
0.466552
0.459185
0.45186
0.444582
0.437359
0.430197
0.423105
0.416089
0.409156
0.402313
0.395567
0.388924
0.382391
0.375974
0.36968
0.363515
0.357484
0.351595
0.345852
0.340262
0.334829
0.32956
0.324459
0.319532
0.314783
0.310217
0.305838
0.301651
0.29766
0.293868
0.29028
0.286899
0.283729
0.280772
0.278031
0.275509
0.273208
0.271132
0.269281
0.267657
0.266263
0.265099
0.264167
0.263468
0.263002
0.262769
0.73724
0.737007
0.736541
0.735842
0.734909
0.733746
0.732352
0.730728
0.728877
0.7268
0.7245
0.721978
0.719237
0.71628
0.713109
0.709728
0.70614
0.702348
0.698357
0.69417
0.689791
0.685225
0.680475
0.675548
0.670447
0.665178
0.659745
0.654155
0.648412
0.642522
0.636492
0.630327
0.624032
0.617615
0.611082
0.604439
0.597693
0.59085
0.583917
0.576901
0.569808
0.562647
0.555424
0.548146
0.54082
0.533454
0.526055
0.51863
0.511186
0.503732
0.496274
0.488819
0.481376
0.473951
0.466551
0.459185
0.451859
0.444581
0.437358
0.430197
0.423105
0.416089
0.409156
0.402313
0.395566
0.388923
0.38239
0.375973
0.369679
0.363514
0.357484
0.351594
0.345851
0.340261
0.334829
0.329559
0.324458
0.319531
0.314782
0.310216
0.305837
0.30165
0.297659
0.293867
0.290279
0.286898
0.283728
0.28077
0.278029
0.275508
0.273207
0.27113
0.26928
0.267656
0.266262
0.265098
0.264166
0.263467
0.263001
0.262768
0.737241
0.737009
0.736542
0.735843
0.734911
0.733747
0.732353
0.730729
0.728878
0.726801
0.724501
0.721979
0.719238
0.716281
0.71311
0.709729
0.706141
0.702349
0.698358
0.694171
0.689792
0.685226
0.680476
0.675549
0.670448
0.665178
0.659746
0.654155
0.648413
0.642523
0.636493
0.630327
0.624033
0.617616
0.611083
0.60444
0.597693
0.59085
0.583917
0.576901
0.569809
0.562647
0.555424
0.548146
0.54082
0.533454
0.526055
0.51863
0.511186
0.503732
0.496274
0.488819
0.481375
0.47395
0.466551
0.459185
0.451859
0.444581
0.437358
0.430197
0.423104
0.416088
0.409155
0.402312
0.395566
0.388923
0.38239
0.375973
0.369678
0.363513
0.357483
0.351593
0.345851
0.34026
0.334828
0.329558
0.324457
0.31953
0.314781
0.310215
0.305836
0.301649
0.297658
0.293866
0.290278
0.286897
0.283726
0.280769
0.278028
0.275506
0.273206
0.271129
0.269278
0.267655
0.266261
0.265097
0.264165
0.263466
0.263
0.262767
0.737242
0.73701
0.736543
0.735844
0.734912
0.733748
0.732354
0.73073
0.728879
0.726803
0.724502
0.72198
0.719239
0.716282
0.713111
0.70973
0.706142
0.70235
0.698359
0.694172
0.689793
0.685226
0.680477
0.67555
0.670449
0.665179
0.659747
0.654156
0.648413
0.642524
0.636493
0.630328
0.624034
0.617617
0.611083
0.60444
0.597694
0.59085
0.583917
0.576901
0.569809
0.562648
0.555424
0.548146
0.54082
0.533454
0.526055
0.51863
0.511186
0.503732
0.496274
0.488819
0.481375
0.47395
0.466551
0.459185
0.451859
0.444581
0.437357
0.430196
0.423104
0.416088
0.409155
0.402312
0.395565
0.388922
0.382389
0.375972
0.369678
0.363512
0.357482
0.351592
0.34585
0.340259
0.334827
0.329557
0.324457
0.319529
0.31478
0.310214
0.305835
0.301648
0.297657
0.293865
0.290277
0.286896
0.283725
0.280768
0.278027
0.275505
0.273205
0.271128
0.269277
0.267654
0.26626
0.265096
0.264164
0.263465
0.262999
0.262766
0.737243
0.737011
0.736545
0.735845
0.734913
0.733749
0.732355
0.730731
0.72888
0.726804
0.724503
0.721981
0.71924
0.716283
0.713112
0.709731
0.706143
0.702351
0.69836
0.694173
0.689794
0.685227
0.680478
0.67555
0.670449
0.66518
0.659747
0.654157
0.648414
0.642524
0.636494
0.630328
0.624034
0.617617
0.611084
0.604441
0.597694
0.590851
0.583918
0.576902
0.569809
0.562648
0.555425
0.548146
0.540821
0.533454
0.526055
0.51863
0.511186
0.503731
0.496273
0.488819
0.481375
0.47395
0.466551
0.459184
0.451859
0.44458
0.437357
0.430196
0.423104
0.416087
0.409154
0.402311
0.395565
0.388922
0.382388
0.375971
0.369677
0.363512
0.357481
0.351592
0.345849
0.340259
0.334826
0.329557
0.324456
0.319528
0.314779
0.310213
0.305834
0.301647
0.297656
0.293864
0.290276
0.286895
0.283724
0.280767
0.278026
0.275504
0.273204
0.271127
0.269276
0.267653
0.266259
0.265095
0.264163
0.263464
0.262998
0.262765
0.737244
0.737012
0.736546
0.735846
0.734914
0.73375
0.732356
0.730733
0.728881
0.726805
0.724504
0.721982
0.719241
0.716284
0.713113
0.709732
0.706144
0.702352
0.698361
0.694173
0.689794
0.685228
0.680479
0.675551
0.67045
0.665181
0.659748
0.654158
0.648415
0.642525
0.636494
0.630329
0.624035
0.617618
0.611084
0.604441
0.597694
0.590851
0.583918
0.576902
0.56981
0.562648
0.555425
0.548147
0.540821
0.533454
0.526055
0.51863
0.511186
0.503731
0.496273
0.488819
0.481375
0.47395
0.46655
0.459184
0.451858
0.44458
0.437357
0.430195
0.423103
0.416087
0.409154
0.402311
0.395564
0.388921
0.382388
0.375971
0.369676
0.363511
0.357481
0.351591
0.345848
0.340258
0.334825
0.329556
0.324455
0.319527
0.314778
0.310212
0.305833
0.301646
0.297655
0.293863
0.290275
0.286894
0.283723
0.280766
0.278025
0.275503
0.273203
0.271126
0.269275
0.267652
0.266258
0.265094
0.264162
0.263463
0.262997
0.262764
0.737245
0.737013
0.736547
0.735847
0.734915
0.733751
0.732357
0.730733
0.728882
0.726806
0.724505
0.721983
0.719242
0.716285
0.713114
0.709733
0.706144
0.702353
0.698361
0.694174
0.689795
0.685229
0.680479
0.675552
0.670451
0.665181
0.659749
0.654158
0.648415
0.642526
0.636495
0.630329
0.624035
0.617618
0.611085
0.604441
0.597695
0.590851
0.583918
0.576902
0.56981
0.562648
0.555425
0.548147
0.540821
0.533455
0.526055
0.51863
0.511186
0.503731
0.496273
0.488819
0.481375
0.47395
0.46655
0.459184
0.451858
0.44458
0.437356
0.430195
0.423103
0.416087
0.409154
0.40231
0.395564
0.388921
0.382387
0.37597
0.369676
0.36351
0.35748
0.35159
0.345848
0.340257
0.334824
0.329555
0.324454
0.319527
0.314777
0.310211
0.305832
0.301645
0.297654
0.293862
0.290274
0.286893
0.283723
0.280765
0.278024
0.275502
0.273202
0.271125
0.269274
0.267651
0.266257
0.265093
0.264161
0.263462
0.262996
0.262764
0.737246
0.737014
0.736548
0.735848
0.734916
0.733752
0.732358
0.730734
0.728883
0.726806
0.724506
0.721984
0.719243
0.716285
0.713115
0.709733
0.706145
0.702354
0.698362
0.694175
0.689796
0.68523
0.68048
0.675553
0.670451
0.665182
0.659749
0.654159
0.648416
0.642526
0.636495
0.63033
0.624036
0.617618
0.611085
0.604442
0.597695
0.590852
0.583919
0.576902
0.56981
0.562649
0.555425
0.548147
0.540821
0.533455
0.526055
0.51863
0.511186
0.503731
0.496273
0.488818
0.481375
0.47395
0.46655
0.459184
0.451858
0.44458
0.437356
0.430195
0.423102
0.416086
0.409153
0.40231
0.395563
0.38892
0.382387
0.37597
0.369675
0.36351
0.357479
0.35159
0.345847
0.340256
0.334824
0.329554
0.324453
0.319526
0.314777
0.31021
0.305831
0.301644
0.297653
0.293861
0.290273
0.286892
0.283722
0.280764
0.278023
0.275502
0.273201
0.271124
0.269273
0.26765
0.266256
0.265092
0.26416
0.263461
0.262995
0.262763
0.737247
0.737015
0.736548
0.735849
0.734917
0.733753
0.732359
0.730735
0.728884
0.726807
0.724507
0.721985
0.719244
0.716286
0.713115
0.709734
0.706146
0.702354
0.698363
0.694176
0.689797
0.68523
0.680481
0.675553
0.670452
0.665183
0.65975
0.654159
0.648416
0.642527
0.636496
0.63033
0.624036
0.617619
0.611085
0.604442
0.597695
0.590852
0.583919
0.576903
0.56981
0.562649
0.555425
0.548147
0.540821
0.533455
0.526055
0.51863
0.511186
0.503731
0.496273
0.488818
0.481375
0.473949
0.46655
0.459184
0.451858
0.444579
0.437356
0.430194
0.423102
0.416086
0.409153
0.40231
0.395563
0.38892
0.382386
0.375969
0.369675
0.363509
0.357479
0.351589
0.345846
0.340256
0.334823
0.329554
0.324453
0.319525
0.314776
0.31021
0.305831
0.301644
0.297652
0.293861
0.290273
0.286892
0.283721
0.280764
0.278023
0.275501
0.2732
0.271124
0.269273
0.267649
0.266255
0.265092
0.26416
0.26346
0.262994
0.262762
0.737248
0.737016
0.736549
0.73585
0.734918
0.733754
0.73236
0.730736
0.728885
0.726808
0.724507
0.721985
0.719244
0.716287
0.713116
0.709735
0.706147
0.702355
0.698364
0.694176
0.689797
0.685231
0.680481
0.675554
0.670453
0.665183
0.65975
0.65416
0.648417
0.642527
0.636496
0.630331
0.624036
0.617619
0.611086
0.604442
0.597696
0.590852
0.583919
0.576903
0.56981
0.562649
0.555426
0.548147
0.540821
0.533455
0.526055
0.51863
0.511186
0.503731
0.496273
0.488818
0.481375
0.473949
0.46655
0.459183
0.451857
0.444579
0.437356
0.430194
0.423102
0.416086
0.409152
0.402309
0.395563
0.388919
0.382386
0.375969
0.369674
0.363509
0.357478
0.351589
0.345846
0.340255
0.334823
0.329553
0.324452
0.319525
0.314775
0.310209
0.30583
0.301643
0.297652
0.29386
0.290272
0.286891
0.28372
0.280763
0.278022
0.2755
0.2732
0.271123
0.269272
0.267649
0.266254
0.265091
0.264159
0.26346
0.262994
0.262761
0.737249
0.737016
0.73655
0.73585
0.734918
0.733755
0.73236
0.730737
0.728886
0.726809
0.724508
0.721986
0.719245
0.716288
0.713117
0.709735
0.706147
0.702356
0.698364
0.694177
0.689798
0.685231
0.680482
0.675554
0.670453
0.665184
0.659751
0.65416
0.648417
0.642527
0.636497
0.630331
0.624037
0.61762
0.611086
0.604443
0.597696
0.590853
0.583919
0.576903
0.569811
0.562649
0.555426
0.548147
0.540821
0.533455
0.526055
0.51863
0.511186
0.503731
0.496273
0.488818
0.481374
0.473949
0.46655
0.459183
0.451857
0.444579
0.437355
0.430194
0.423102
0.416085
0.409152
0.402309
0.395562
0.388919
0.382385
0.375968
0.369674
0.363508
0.357478
0.351588
0.345845
0.340255
0.334822
0.329553
0.324452
0.319524
0.314775
0.310208
0.305829
0.301642
0.297651
0.293859
0.290271
0.28689
0.28372
0.280762
0.278021
0.275499
0.273199
0.271122
0.269271
0.267648
0.266254
0.26509
0.264158
0.263459
0.262993
0.262761
0.737249
0.737017
0.736551
0.735851
0.734919
0.733755
0.732361
0.730737
0.728886
0.726809
0.724509
0.721987
0.719246
0.716288
0.713117
0.709736
0.706148
0.702356
0.698365
0.694177
0.689798
0.685232
0.680482
0.675555
0.670454
0.665184
0.659751
0.654161
0.648418
0.642528
0.636497
0.630332
0.624037
0.61762
0.611086
0.604443
0.597696
0.590853
0.58392
0.576903
0.569811
0.562649
0.555426
0.548147
0.540821
0.533455
0.526055
0.51863
0.511186
0.503731
0.496273
0.488818
0.481374
0.473949
0.466549
0.459183
0.451857
0.444579
0.437355
0.430194
0.423101
0.416085
0.409152
0.402308
0.395562
0.388918
0.382385
0.375968
0.369673
0.363508
0.357477
0.351588
0.345845
0.340254
0.334822
0.329552
0.324451
0.319523
0.314774
0.310208
0.305829
0.301642
0.29765
0.293859
0.290271
0.28689
0.283719
0.280762
0.278021
0.275499
0.273198
0.271122
0.269271
0.267647
0.266253
0.26509
0.264158
0.263458
0.262992
0.26276
0.73725
0.737018
0.736551
0.735852
0.73492
0.733756
0.732362
0.730738
0.728887
0.72681
0.724509
0.721987
0.719246
0.716289
0.713118
0.709737
0.706148
0.702357
0.698365
0.694178
0.689799
0.685232
0.680483
0.675555
0.670454
0.665184
0.659752
0.654161
0.648418
0.642528
0.636497
0.630332
0.624037
0.61762
0.611087
0.604443
0.597696
0.590853
0.58392
0.576903
0.569811
0.562649
0.555426
0.548147
0.540821
0.533455
0.526055
0.51863
0.511186
0.503731
0.496273
0.488818
0.481374
0.473949
0.466549
0.459183
0.451857
0.444578
0.437355
0.430193
0.423101
0.416085
0.409152
0.402308
0.395561
0.388918
0.382385
0.375968
0.369673
0.363508
0.357477
0.351587
0.345844
0.340254
0.334821
0.329552
0.324451
0.319523
0.314774
0.310207
0.305828
0.301641
0.29765
0.293858
0.29027
0.286889
0.283718
0.280761
0.27802
0.275498
0.273198
0.271121
0.26927
0.267647
0.266253
0.265089
0.264157
0.263458
0.262992
0.262759
0.737251
0.737018
0.736552
0.735852
0.73492
0.733756
0.732362
0.730739
0.728887
0.726811
0.72451
0.721988
0.719247
0.716289
0.713118
0.709737
0.706149
0.702357
0.698366
0.694178
0.689799
0.685233
0.680483
0.675556
0.670454
0.665185
0.659752
0.654161
0.648418
0.642528
0.636498
0.630332
0.624038
0.61762
0.611087
0.604443
0.597697
0.590853
0.58392
0.576904
0.569811
0.56265
0.555426
0.548148
0.540821
0.533455
0.526055
0.51863
0.511186
0.503731
0.496273
0.488818
0.481374
0.473949
0.466549
0.459183
0.451857
0.444578
0.437355
0.430193
0.423101
0.416085
0.409151
0.402308
0.395561
0.388918
0.382384
0.375967
0.369673
0.363507
0.357477
0.351587
0.345844
0.340253
0.334821
0.329551
0.32445
0.319522
0.314773
0.310207
0.305828
0.301641
0.297649
0.293858
0.29027
0.286889
0.283718
0.280761
0.27802
0.275498
0.273197
0.27112
0.26927
0.267646
0.266252
0.265088
0.264156
0.263457
0.262991
0.262759
0.737251
0.737019
0.736552
0.735853
0.734921
0.733757
0.732363
0.730739
0.728888
0.726811
0.72451
0.721988
0.719247
0.71629
0.713119
0.709738
0.706149
0.702358
0.698366
0.694179
0.6898
0.685233
0.680484
0.675556
0.670455
0.665185
0.659752
0.654162
0.648419
0.642529
0.636498
0.630332
0.624038
0.617621
0.611087
0.604444
0.597697
0.590853
0.58392
0.576904
0.569811
0.56265
0.555426
0.548148
0.540821
0.533455
0.526055
0.51863
0.511186
0.503731
0.496273
0.488818
0.481374
0.473949
0.466549
0.459183
0.451857
0.444578
0.437355
0.430193
0.423101
0.416084
0.409151
0.402308
0.395561
0.388918
0.382384
0.375967
0.369672
0.363507
0.357476
0.351587
0.345844
0.340253
0.33482
0.329551
0.32445
0.319522
0.314773
0.310206
0.305827
0.30164
0.297649
0.293857
0.290269
0.286888
0.283717
0.28076
0.278019
0.275497
0.273197
0.27112
0.269269
0.267646
0.266252
0.265088
0.264156
0.263457
0.262991
0.262758
0.737252
0.737019
0.736553
0.735853
0.734921
0.733757
0.732363
0.730739
0.728888
0.726811
0.724511
0.721989
0.719248
0.71629
0.713119
0.709738
0.70615
0.702358
0.698366
0.694179
0.6898
0.685233
0.680484
0.675556
0.670455
0.665185
0.659753
0.654162
0.648419
0.642529
0.636498
0.630333
0.624038
0.617621
0.611087
0.604444
0.597697
0.590853
0.58392
0.576904
0.569811
0.56265
0.555426
0.548148
0.540822
0.533455
0.526055
0.51863
0.511186
0.503731
0.496273
0.488818
0.481374
0.473949
0.466549
0.459182
0.451856
0.444578
0.437354
0.430193
0.4231
0.416084
0.409151
0.402307
0.395561
0.388917
0.382384
0.375967
0.369672
0.363507
0.357476
0.351586
0.345843
0.340253
0.33482
0.32955
0.324449
0.319522
0.314772
0.310206
0.305827
0.30164
0.297648
0.293857
0.290269
0.286888
0.283717
0.28076
0.278019
0.275497
0.273196
0.27112
0.269269
0.267645
0.266251
0.265088
0.264156
0.263456
0.26299
0.262758
0.737252
0.737019
0.736553
0.735854
0.734922
0.733758
0.732363
0.73074
0.728889
0.726812
0.724511
0.721989
0.719248
0.71629
0.713119
0.709738
0.70615
0.702358
0.698367
0.694179
0.6898
0.685234
0.680484
0.675556
0.670455
0.665186
0.659753
0.654162
0.648419
0.642529
0.636498
0.630333
0.624038
0.617621
0.611087
0.604444
0.597697
0.590854
0.58392
0.576904
0.569811
0.56265
0.555426
0.548148
0.540822
0.533455
0.526055
0.51863
0.511186
0.503731
0.496273
0.488818
0.481374
0.473949
0.466549
0.459182
0.451856
0.444578
0.437354
0.430193
0.4231
0.416084
0.409151
0.402307
0.395561
0.388917
0.382384
0.375966
0.369672
0.363506
0.357476
0.351586
0.345843
0.340252
0.33482
0.32955
0.324449
0.319521
0.314772
0.310206
0.305827
0.30164
0.297648
0.293857
0.290268
0.286887
0.283717
0.280759
0.278018
0.275496
0.273196
0.271119
0.269268
0.267645
0.266251
0.265087
0.264155
0.263456
0.26299
0.262758
0.737252
0.73702
0.736554
0.735854
0.734922
0.733758
0.732364
0.73074
0.728889
0.726812
0.724511
0.721989
0.719248
0.716291
0.71312
0.709738
0.70615
0.702358
0.698367
0.69418
0.6898
0.685234
0.680484
0.675557
0.670455
0.665186
0.659753
0.654162
0.648419
0.642529
0.636499
0.630333
0.624038
0.617621
0.611087
0.604444
0.597697
0.590854
0.58392
0.576904
0.569811
0.56265
0.555426
0.548148
0.540822
0.533455
0.526055
0.51863
0.511186
0.503731
0.496273
0.488818
0.481374
0.473948
0.466549
0.459182
0.451856
0.444578
0.437354
0.430193
0.4231
0.416084
0.40915
0.402307
0.39556
0.388917
0.382383
0.375966
0.369672
0.363506
0.357475
0.351586
0.345843
0.340252
0.334819
0.32955
0.324449
0.319521
0.314772
0.310205
0.305826
0.301639
0.297648
0.293856
0.290268
0.286887
0.283716
0.280759
0.278018
0.275496
0.273196
0.271119
0.269268
0.267645
0.266251
0.265087
0.264155
0.263456
0.26299
0.262757
0.737252
0.73702
0.736554
0.735854
0.734922
0.733758
0.732364
0.73074
0.728889
0.726812
0.724512
0.72199
0.719248
0.716291
0.71312
0.709739
0.70615
0.702359
0.698367
0.69418
0.689801
0.685234
0.680485
0.675557
0.670456
0.665186
0.659753
0.654162
0.648419
0.642529
0.636499
0.630333
0.624038
0.617621
0.611087
0.604444
0.597697
0.590854
0.58392
0.576904
0.569811
0.56265
0.555426
0.548148
0.540822
0.533455
0.526055
0.51863
0.511186
0.503731
0.496273
0.488818
0.481374
0.473948
0.466549
0.459182
0.451856
0.444578
0.437354
0.430192
0.4231
0.416084
0.40915
0.402307
0.39556
0.388917
0.382383
0.375966
0.369672
0.363506
0.357475
0.351586
0.345843
0.340252
0.334819
0.32955
0.324449
0.319521
0.314772
0.310205
0.305826
0.301639
0.297648
0.293856
0.290268
0.286887
0.283716
0.280759
0.278018
0.275496
0.273195
0.271119
0.269268
0.267644
0.26625
0.265087
0.264155
0.263455
0.262989
0.262757
0.737253
0.73702
0.736554
0.735854
0.734922
0.733758
0.732364
0.730741
0.728889
0.726812
0.724512
0.72199
0.719249
0.716291
0.71312
0.709739
0.706151
0.702359
0.698367
0.69418
0.689801
0.685234
0.680485
0.675557
0.670456
0.665186
0.659753
0.654162
0.648419
0.642529
0.636499
0.630333
0.624038
0.617621
0.611088
0.604444
0.597697
0.590854
0.58392
0.576904
0.569811
0.56265
0.555426
0.548148
0.540822
0.533455
0.526055
0.51863
0.511186
0.503731
0.496273
0.488818
0.481374
0.473948
0.466549
0.459182
0.451856
0.444578
0.437354
0.430192
0.4231
0.416084
0.40915
0.402307
0.39556
0.388917
0.382383
0.375966
0.369671
0.363506
0.357475
0.351585
0.345842
0.340252
0.334819
0.32955
0.324448
0.319521
0.314771
0.310205
0.305826
0.301639
0.297647
0.293856
0.290268
0.286887
0.283716
0.280759
0.278018
0.275496
0.273195
0.271119
0.269268
0.267644
0.26625
0.265087
0.264155
0.263455
0.262989
0.262757
0.737253
0.73702
0.736554
0.735855
0.734922
0.733759
0.732364
0.730741
0.72889
0.726813
0.724512
0.72199
0.719249
0.716291
0.71312
0.709739
0.706151
0.702359
0.698367
0.69418
0.689801
0.685234
0.680485
0.675557
0.670456
0.665186
0.659753
0.654163
0.648419
0.64253
0.636499
0.630333
0.624038
0.617621
0.611088
0.604444
0.597697
0.590854
0.58392
0.576904
0.569811
0.56265
0.555426
0.548148
0.540822
0.533455
0.526055
0.51863
0.511186
0.503731
0.496273
0.488818
0.481374
0.473948
0.466549
0.459182
0.451856
0.444577
0.437354
0.430192
0.4231
0.416083
0.40915
0.402307
0.39556
0.388917
0.382383
0.375966
0.369671
0.363506
0.357475
0.351585
0.345842
0.340252
0.334819
0.329549
0.324448
0.319521
0.314771
0.310205
0.305826
0.301639
0.297647
0.293856
0.290268
0.286887
0.283716
0.280759
0.278018
0.275496
0.273195
0.271118
0.269268
0.267644
0.26625
0.265086
0.264155
0.263455
0.262989
0.262757
0.737253
0.73702
0.736554
0.735855
0.734922
0.733759
0.732364
0.730741
0.72889
0.726813
0.724512
0.72199
0.719249
0.716291
0.71312
0.709739
0.706151
0.702359
0.698367
0.69418
0.689801
0.685234
0.680485
0.675557
0.670456
0.665186
0.659753
0.654163
0.648419
0.64253
0.636499
0.630333
0.624038
0.617621
0.611088
0.604444
0.597697
0.590854
0.58392
0.576904
0.569811
0.56265
0.555426
0.548148
0.540821
0.533455
0.526055
0.51863
0.511186
0.503731
0.496273
0.488818
0.481374
0.473948
0.466549
0.459182
0.451856
0.444577
0.437354
0.430192
0.4231
0.416083
0.40915
0.402307
0.39556
0.388916
0.382383
0.375966
0.369671
0.363506
0.357475
0.351585
0.345842
0.340252
0.334819
0.329549
0.324448
0.319521
0.314771
0.310205
0.305826
0.301639
0.297647
0.293856
0.290268
0.286887
0.283716
0.280758
0.278017
0.275496
0.273195
0.271118
0.269267
0.267644
0.26625
0.265086
0.264154
0.263455
0.262989
0.262757
0.737253
0.73702
0.736554
0.735855
0.734923
0.733759
0.732364
0.730741
0.72889
0.726813
0.724512
0.72199
0.719249
0.716291
0.71312
0.709739
0.706151
0.702359
0.698367
0.69418
0.689801
0.685234
0.680485
0.675557
0.670456
0.665186
0.659753
0.654163
0.648419
0.64253
0.636499
0.630333
0.624038
0.617621
0.611088
0.604444
0.597697
0.590854
0.58392
0.576904
0.569811
0.56265
0.555426
0.548148
0.540821
0.533455
0.526055
0.51863
0.511186
0.503731
0.496272
0.488818
0.481374
0.473948
0.466548
0.459182
0.451856
0.444577
0.437354
0.430192
0.4231
0.416083
0.40915
0.402307
0.39556
0.388916
0.382383
0.375966
0.369671
0.363506
0.357475
0.351585
0.345842
0.340252
0.334819
0.329549
0.324448
0.319521
0.314771
0.310205
0.305826
0.301639
0.297647
0.293856
0.290268
0.286887
0.283716
0.280758
0.278017
0.275496
0.273195
0.271118
0.269267
0.267644
0.26625
0.265086
0.264154
0.263455
0.262989
0.262757
0.737253
0.73702
0.736554
0.735855
0.734922
0.733759
0.732364
0.730741
0.72889
0.726813
0.724512
0.72199
0.719249
0.716291
0.71312
0.709739
0.706151
0.702359
0.698367
0.69418
0.689801
0.685234
0.680485
0.675557
0.670456
0.665186
0.659753
0.654162
0.648419
0.642529
0.636499
0.630333
0.624038
0.617621
0.611087
0.604444
0.597697
0.590854
0.58392
0.576904
0.569811
0.56265
0.555426
0.548148
0.540821
0.533455
0.526055
0.51863
0.511186
0.503731
0.496272
0.488817
0.481374
0.473948
0.466548
0.459182
0.451856
0.444577
0.437354
0.430192
0.4231
0.416083
0.40915
0.402307
0.39556
0.388916
0.382383
0.375966
0.369671
0.363506
0.357475
0.351585
0.345842
0.340252
0.334819
0.329549
0.324448
0.319521
0.314771
0.310205
0.305826
0.301639
0.297647
0.293856
0.290268
0.286887
0.283716
0.280759
0.278018
0.275496
0.273195
0.271118
0.269268
0.267644
0.26625
0.265086
0.264155
0.263455
0.262989
0.262757
0.737253
0.73702
0.736554
0.735855
0.734922
0.733759
0.732364
0.730741
0.728889
0.726813
0.724512
0.72199
0.719249
0.716291
0.71312
0.709739
0.706151
0.702359
0.698367
0.69418
0.689801
0.685234
0.680485
0.675557
0.670456
0.665186
0.659753
0.654162
0.648419
0.642529
0.636499
0.630333
0.624038
0.617621
0.611087
0.604444
0.597697
0.590854
0.58392
0.576904
0.569811
0.56265
0.555426
0.548147
0.540821
0.533455
0.526055
0.51863
0.511186
0.503731
0.496272
0.488817
0.481374
0.473948
0.466548
0.459182
0.451856
0.444577
0.437354
0.430192
0.4231
0.416083
0.40915
0.402307
0.39556
0.388916
0.382383
0.375966
0.369671
0.363506
0.357475
0.351585
0.345842
0.340252
0.334819
0.329549
0.324448
0.319521
0.314771
0.310205
0.305826
0.301639
0.297647
0.293856
0.290268
0.286887
0.283716
0.280759
0.278018
0.275496
0.273195
0.271119
0.269268
0.267644
0.26625
0.265087
0.264155
0.263455
0.262989
0.262757
0.737253
0.73702
0.736554
0.735854
0.734922
0.733758
0.732364
0.73074
0.728889
0.726812
0.724512
0.72199
0.719248
0.716291
0.71312
0.709739
0.70615
0.702359
0.698367
0.69418
0.689801
0.685234
0.680484
0.675557
0.670455
0.665186
0.659753
0.654162
0.648419
0.642529
0.636498
0.630333
0.624038
0.617621
0.611087
0.604444
0.597697
0.590853
0.58392
0.576904
0.569811
0.56265
0.555426
0.548147
0.540821
0.533455
0.526055
0.51863
0.511186
0.503731
0.496272
0.488817
0.481373
0.473948
0.466548
0.459182
0.451856
0.444577
0.437354
0.430192
0.4231
0.416083
0.40915
0.402307
0.39556
0.388916
0.382383
0.375966
0.369671
0.363506
0.357475
0.351585
0.345842
0.340252
0.334819
0.32955
0.324448
0.319521
0.314771
0.310205
0.305826
0.301639
0.297648
0.293856
0.290268
0.286887
0.283716
0.280759
0.278018
0.275496
0.273195
0.271119
0.269268
0.267644
0.26625
0.265087
0.264155
0.263456
0.262989
0.262757
0.737252
0.73702
0.736554
0.735854
0.734922
0.733758
0.732364
0.73074
0.728889
0.726812
0.724511
0.721989
0.719248
0.716291
0.71312
0.709738
0.70615
0.702358
0.698367
0.694179
0.6898
0.685234
0.680484
0.675557
0.670455
0.665186
0.659753
0.654162
0.648419
0.642529
0.636498
0.630333
0.624038
0.617621
0.611087
0.604444
0.597697
0.590853
0.58392
0.576904
0.569811
0.562649
0.555426
0.548147
0.540821
0.533455
0.526055
0.518629
0.511186
0.503731
0.496272
0.488817
0.481373
0.473948
0.466548
0.459182
0.451856
0.444577
0.437354
0.430192
0.4231
0.416083
0.40915
0.402307
0.39556
0.388917
0.382383
0.375966
0.369671
0.363506
0.357475
0.351585
0.345842
0.340252
0.334819
0.32955
0.324449
0.319521
0.314772
0.310205
0.305826
0.301639
0.297648
0.293856
0.290268
0.286887
0.283716
0.280759
0.278018
0.275496
0.273196
0.271119
0.269268
0.267645
0.266251
0.265087
0.264155
0.263456
0.26299
0.262757
0.737252
0.73702
0.736553
0.735854
0.734922
0.733758
0.732363
0.73074
0.728889
0.726812
0.724511
0.721989
0.719248
0.71629
0.713119
0.709738
0.70615
0.702358
0.698367
0.694179
0.6898
0.685234
0.680484
0.675556
0.670455
0.665185
0.659753
0.654162
0.648419
0.642529
0.636498
0.630332
0.624038
0.617621
0.611087
0.604443
0.597697
0.590853
0.58392
0.576903
0.569811
0.562649
0.555426
0.548147
0.540821
0.533455
0.526055
0.518629
0.511186
0.503731
0.496272
0.488817
0.481373
0.473948
0.466548
0.459182
0.451856
0.444577
0.437354
0.430192
0.4231
0.416083
0.40915
0.402307
0.39556
0.388917
0.382383
0.375966
0.369672
0.363506
0.357475
0.351586
0.345843
0.340252
0.334819
0.32955
0.324449
0.319521
0.314772
0.310205
0.305827
0.301639
0.297648
0.293856
0.290268
0.286887
0.283717
0.280759
0.278018
0.275496
0.273196
0.271119
0.269268
0.267645
0.266251
0.265087
0.264155
0.263456
0.26299
0.262758
0.737252
0.737019
0.736553
0.735853
0.734921
0.733758
0.732363
0.73074
0.728888
0.726812
0.724511
0.721989
0.719248
0.71629
0.713119
0.709738
0.70615
0.702358
0.698366
0.694179
0.6898
0.685233
0.680484
0.675556
0.670455
0.665185
0.659752
0.654162
0.648418
0.642529
0.636498
0.630332
0.624038
0.61762
0.611087
0.604443
0.597696
0.590853
0.58392
0.576903
0.569811
0.562649
0.555426
0.548147
0.540821
0.533454
0.526055
0.518629
0.511185
0.503731
0.496272
0.488817
0.481373
0.473948
0.466548
0.459182
0.451856
0.444577
0.437354
0.430192
0.4231
0.416084
0.40915
0.402307
0.39556
0.388917
0.382383
0.375966
0.369672
0.363506
0.357476
0.351586
0.345843
0.340252
0.33482
0.32955
0.324449
0.319521
0.314772
0.310206
0.305827
0.30164
0.297648
0.293857
0.290269
0.286888
0.283717
0.28076
0.278019
0.275497
0.273196
0.27112
0.269269
0.267645
0.266251
0.265088
0.264156
0.263456
0.26299
0.262758
0.737251
0.737019
0.736553
0.735853
0.734921
0.733757
0.732363
0.730739
0.728888
0.726811
0.72451
0.721988
0.719247
0.71629
0.713119
0.709737
0.706149
0.702357
0.698366
0.694179
0.689799
0.685233
0.680483
0.675556
0.670454
0.665185
0.659752
0.654161
0.648418
0.642528
0.636498
0.630332
0.624037
0.61762
0.611087
0.604443
0.597696
0.590853
0.583919
0.576903
0.569811
0.562649
0.555425
0.548147
0.540821
0.533454
0.526055
0.518629
0.511185
0.50373
0.496272
0.488817
0.481373
0.473948
0.466548
0.459182
0.451856
0.444577
0.437354
0.430192
0.4231
0.416084
0.40915
0.402307
0.39556
0.388917
0.382384
0.375966
0.369672
0.363506
0.357476
0.351586
0.345843
0.340253
0.33482
0.32955
0.324449
0.319522
0.314772
0.310206
0.305827
0.30164
0.297649
0.293857
0.290269
0.286888
0.283717
0.28076
0.278019
0.275497
0.273197
0.27112
0.269269
0.267646
0.266252
0.265088
0.264156
0.263457
0.262991
0.262759
0.737251
0.737018
0.736552
0.735853
0.73492
0.733757
0.732362
0.730739
0.728888
0.726811
0.72451
0.721988
0.719247
0.716289
0.713118
0.709737
0.706149
0.702357
0.698366
0.694178
0.689799
0.685233
0.680483
0.675555
0.670454
0.665184
0.659752
0.654161
0.648418
0.642528
0.636497
0.630332
0.624037
0.61762
0.611086
0.604443
0.597696
0.590853
0.583919
0.576903
0.56981
0.562649
0.555425
0.548147
0.540821
0.533454
0.526055
0.518629
0.511185
0.50373
0.496272
0.488817
0.481373
0.473948
0.466548
0.459182
0.451856
0.444578
0.437354
0.430193
0.4231
0.416084
0.409151
0.402307
0.395561
0.388917
0.382384
0.375967
0.369672
0.363507
0.357476
0.351586
0.345843
0.340253
0.33482
0.329551
0.32445
0.319522
0.314773
0.310206
0.305828
0.30164
0.297649
0.293857
0.290269
0.286888
0.283718
0.28076
0.278019
0.275498
0.273197
0.27112
0.26927
0.267646
0.266252
0.265089
0.264157
0.263457
0.262991
0.262759
0.73725
0.737018
0.736552
0.735852
0.73492
0.733756
0.732362
0.730738
0.728887
0.72681
0.72451
0.721987
0.719246
0.716289
0.713118
0.709737
0.706148
0.702357
0.698365
0.694178
0.689799
0.685232
0.680483
0.675555
0.670454
0.665184
0.659751
0.654161
0.648417
0.642528
0.636497
0.630331
0.624037
0.617619
0.611086
0.604443
0.597696
0.590852
0.583919
0.576903
0.56981
0.562649
0.555425
0.548147
0.540821
0.533454
0.526054
0.518629
0.511185
0.50373
0.496272
0.488817
0.481373
0.473948
0.466548
0.459182
0.451856
0.444578
0.437354
0.430193
0.4231
0.416084
0.409151
0.402307
0.395561
0.388917
0.382384
0.375967
0.369672
0.363507
0.357476
0.351587
0.345844
0.340253
0.334821
0.329551
0.32445
0.319522
0.314773
0.310207
0.305828
0.301641
0.297649
0.293858
0.29027
0.286889
0.283718
0.280761
0.27802
0.275498
0.273198
0.271121
0.26927
0.267647
0.266253
0.265089
0.264157
0.263458
0.262992
0.26276
0.73725
0.737017
0.736551
0.735852