/*--------------------------------*- C++ -*----------------------------------*\
  =========                 |
  \\      /  F ield         | OpenFOAM: The Open Source CFD Toolbox
   \\    /   O peration     | Website:  https://openfoam.org
    \\  /    A nd           | Version:  6
     \\/     M anipulation  |
\*---------------------------------------------------------------------------*/
FoamFile
{
    version     2.0;
    format      ascii;
    class       volScalarField;
    location    "14";
    object      T;
}
// * * * * * * * * * * * * * * * * * * * * * * * * * * * * * * * * * * * * * //

dimensions      [0 0 0 1 0 0 0];

internalField   nonuniform List<scalar> 
5000
(
0.659885
0.659729
0.659414
0.658942
0.658314
0.657529
0.656588
0.655493
0.654245
0.652844
0.651292
0.649591
0.647742
0.645748
0.64361
0.641329
0.63891
0.636353
0.633662
0.630839
0.627886
0.624807
0.621606
0.618284
0.614845
0.611293
0.607631
0.603863
0.599992
0.596023
0.591959
0.587804
0.583562
0.579238
0.574836
0.570359
0.565814
0.561203
0.556532
0.551805
0.547027
0.542203
0.537337
0.532434
0.527499
0.522537
0.517553
0.512551
0.507537
0.502515
0.497492
0.49247
0.487456
0.482454
0.47747
0.472508
0.467573
0.46267
0.457804
0.45298
0.448202
0.443475
0.438804
0.434193
0.429648
0.425172
0.420769
0.416445
0.412204
0.408049
0.403985
0.400015
0.396145
0.392377
0.388715
0.385163
0.381724
0.378402
0.3752
0.372122
0.36917
0.366346
0.363655
0.361098
0.358679
0.356399
0.35426
0.352266
0.350417
0.348716
0.347165
0.345764
0.344516
0.343421
0.34248
0.341695
0.341066
0.340594
0.34028
0.340122
0.659886
0.65973
0.659415
0.658943
0.658315
0.65753
0.656589
0.655494
0.654246
0.652845
0.651293
0.649592
0.647743
0.645749
0.64361
0.64133
0.638911
0.636354
0.633663
0.630839
0.627887
0.624808
0.621606
0.618284
0.614846
0.611294
0.607632
0.603864
0.599993
0.596023
0.591959
0.587804
0.583563
0.579238
0.574836
0.57036
0.565814
0.561204
0.556532
0.551806
0.547028
0.542203
0.537337
0.532434
0.527499
0.522537
0.517553
0.512551
0.507537
0.502515
0.497492
0.49247
0.487456
0.482454
0.47747
0.472508
0.467573
0.46267
0.457804
0.452979
0.448201
0.443475
0.438803
0.434193
0.429647
0.425171
0.420769
0.416445
0.412203
0.408048
0.403984
0.400015
0.396144
0.392376
0.388714
0.385162
0.381723
0.378401
0.3752
0.372121
0.369169
0.366345
0.363654
0.361097
0.358678
0.356398
0.35426
0.352265
0.350416
0.348716
0.347164
0.345763
0.344515
0.34342
0.342479
0.341694
0.341065
0.340593
0.340279
0.340122
0.659887
0.659731
0.659416
0.658944
0.658316
0.657531
0.65659
0.655495
0.654246
0.652846
0.651294
0.649593
0.647744
0.64575
0.643611
0.641331
0.638911
0.636355
0.633663
0.63084
0.627888
0.624809
0.621607
0.618285
0.614846
0.611294
0.607632
0.603864
0.599993
0.596024
0.59196
0.587805
0.583563
0.579239
0.574837
0.57036
0.565815
0.561204
0.556533
0.551806
0.547028
0.542203
0.537337
0.532434
0.527499
0.522537
0.517553
0.512551
0.507537
0.502515
0.497491
0.49247
0.487456
0.482454
0.47747
0.472508
0.467573
0.46267
0.457804
0.452979
0.448201
0.443474
0.438803
0.434192
0.429647
0.425171
0.420768
0.416444
0.412202
0.408048
0.403983
0.400014
0.396143
0.392375
0.388713
0.385161
0.381723
0.378401
0.375199
0.37212
0.369168
0.366345
0.363653
0.361097
0.358677
0.356397
0.354259
0.352264
0.350416
0.348715
0.347163
0.345762
0.344514
0.343419
0.342478
0.341693
0.341065
0.340593
0.340278
0.340121
0.659888
0.659731
0.659417
0.658945
0.658316
0.657531
0.656591
0.655496
0.654247
0.652846
0.651295
0.649594
0.647745
0.64575
0.643612
0.641332
0.638912
0.636355
0.633664
0.630841
0.627888
0.624809
0.621608
0.618286
0.614847
0.611295
0.607633
0.603865
0.599994
0.596024
0.59196
0.587805
0.583563
0.579239
0.574837
0.570361
0.565815
0.561204
0.556533
0.551806
0.547028
0.542204
0.537337
0.532434
0.527499
0.522537
0.517553
0.512551
0.507537
0.502515
0.497491
0.49247
0.487456
0.482454
0.47747
0.472507
0.467572
0.462669
0.457803
0.452979
0.448201
0.443474
0.438803
0.434192
0.429646
0.42517
0.420768
0.416444
0.412202
0.408047
0.403983
0.400013
0.396143
0.392375
0.388713
0.385161
0.381722
0.3784
0.375198
0.37212
0.369167
0.366344
0.363653
0.361096
0.358676
0.356396
0.354258
0.352263
0.350415
0.348714
0.347162
0.345762
0.344513
0.343418
0.342478
0.341693
0.341064
0.340592
0.340278
0.340121
0.659889
0.659732
0.659418
0.658946
0.658317
0.657532
0.656592
0.655497
0.654248
0.652847
0.651295
0.649594
0.647746
0.645751
0.643613
0.641333
0.638913
0.636356
0.633665
0.630841
0.627889
0.62481
0.621608
0.618286
0.614847
0.611295
0.607633
0.603865
0.599994
0.596025
0.591961
0.587806
0.583564
0.57924
0.574837
0.570361
0.565815
0.561204
0.556533
0.551806
0.547028
0.542204
0.537337
0.532434
0.527499
0.522537
0.517553
0.512551
0.507537
0.502515
0.497491
0.49247
0.487456
0.482454
0.477469
0.472507
0.467572
0.462669
0.457803
0.452979
0.4482
0.443474
0.438802
0.434192
0.429646
0.42517
0.420767
0.416443
0.412202
0.408047
0.403982
0.400013
0.396142
0.392374
0.388712
0.38516
0.381721
0.3784
0.375198
0.372119
0.369167
0.366343
0.363652
0.361095
0.358676
0.356396
0.354257
0.352263
0.350414
0.348713
0.347162
0.345761
0.344512
0.343417
0.342477
0.341692
0.341063
0.340591
0.340277
0.34012
0.65989
0.659733
0.659419
0.658947
0.658318
0.657533
0.656592
0.655497
0.654249
0.652848
0.651296
0.649595
0.647746
0.645752
0.643613
0.641333
0.638913
0.636357
0.633665
0.630842
0.627889
0.624811
0.621609
0.618287
0.614848
0.611296
0.607634
0.603866
0.599995
0.596025
0.591961
0.587806
0.583564
0.57924
0.574838
0.570361
0.565815
0.561205
0.556534
0.551807
0.547028
0.542204
0.537338
0.532435
0.527499
0.522537
0.517553
0.512551
0.507537
0.502515
0.497491
0.49247
0.487456
0.482454
0.477469
0.472507
0.467572
0.462669
0.457803
0.452978
0.4482
0.443473
0.438802
0.434191
0.429646
0.425169
0.420767
0.416443
0.412201
0.408046
0.403982
0.400012
0.396142
0.392374
0.388712
0.38516
0.381721
0.378399
0.375197
0.372118
0.369166
0.366343
0.363651
0.361095
0.358675
0.356395
0.354257
0.352262
0.350413
0.348712
0.347161
0.34576
0.344512
0.343417
0.342476
0.341691
0.341062
0.340591
0.340276
0.34012
0.659891
0.659734
0.659419
0.658947
0.658319
0.657534
0.656593
0.655498
0.654249
0.652848
0.651297
0.649596
0.647747
0.645752
0.643614
0.641334
0.638914
0.636357
0.633666
0.630842
0.62789
0.624811
0.621609
0.618287
0.614848
0.611296
0.607634
0.603866
0.599995
0.596026
0.591961
0.587806
0.583565
0.57924
0.574838
0.570361
0.565816
0.561205
0.556534
0.551807
0.547029
0.542204
0.537338
0.532435
0.5275
0.522537
0.517553
0.512551
0.507537
0.502515
0.497491
0.49247
0.487455
0.482454
0.477469
0.472507
0.467572
0.462669
0.457803
0.452978
0.4482
0.443473
0.438802
0.434191
0.429645
0.425169
0.420767
0.416442
0.412201
0.408046
0.403981
0.400012
0.396141
0.392373
0.388711
0.385159
0.38172
0.378398
0.375196
0.372118
0.369165
0.366342
0.363651
0.361094
0.358674
0.356394
0.354256
0.352261
0.350413
0.348712
0.34716
0.345759
0.344511
0.343416
0.342475
0.34169
0.341062
0.34059
0.340276
0.340119
0.659891
0.659734
0.65942
0.658948
0.658319
0.657534
0.656594
0.655499
0.65425
0.652849
0.651297
0.649596
0.647748
0.645753
0.643615
0.641334
0.638915
0.636358
0.633666
0.630843
0.62789
0.624812
0.62161
0.618288
0.614849
0.611297
0.607635
0.603866
0.599996
0.596026
0.591962
0.587807
0.583565
0.579241
0.574838
0.570362
0.565816
0.561205
0.556534
0.551807
0.547029
0.542204
0.537338
0.532435
0.5275
0.522537
0.517553
0.512551
0.507537
0.502515
0.497491
0.49247
0.487455
0.482454
0.477469
0.472507
0.467572
0.462669
0.457802
0.452978
0.4482
0.443473
0.438802
0.434191
0.429645
0.425169
0.420766
0.416442
0.4122
0.408045
0.403981
0.400012
0.396141
0.392373
0.388711
0.385159
0.38172
0.378398
0.375196
0.372117
0.369165
0.366341
0.36365
0.361093
0.358674
0.356394
0.354255
0.352261
0.350412
0.348711
0.34716
0.345759
0.34451
0.343415
0.342475
0.34169
0.341061
0.340589
0.340275
0.340118
0.659892
0.659735
0.659421
0.658949
0.65832
0.657535
0.656594
0.655499
0.654251
0.65285
0.651298
0.649597
0.647748
0.645754
0.643615
0.641335
0.638915
0.636358
0.633667
0.630843
0.627891
0.624812
0.62161
0.618288
0.614849
0.611297
0.607635
0.603867
0.599996
0.596026
0.591962
0.587807
0.583565
0.579241
0.574838
0.570362
0.565816
0.561205
0.556534
0.551807
0.547029
0.542204
0.537338
0.532435
0.5275
0.522537
0.517553
0.512551
0.507537
0.502515
0.497491
0.49247
0.487455
0.482453
0.477469
0.472507
0.467572
0.462668
0.457802
0.452978
0.448199
0.443472
0.438801
0.43419
0.429645
0.425168
0.420766
0.416442
0.4122
0.408045
0.403981
0.400011
0.39614
0.392372
0.38871
0.385158
0.381719
0.378397
0.375195
0.372117
0.369164
0.366341
0.36365
0.361093
0.358673
0.356393
0.354255
0.35226
0.350412
0.348711
0.347159
0.345758
0.34451
0.343415
0.342474
0.341689
0.341061
0.340589
0.340275
0.340118
0.659892
0.659736
0.659421
0.658949
0.65832
0.657535
0.656595
0.6555
0.654251
0.65285
0.651299
0.649597
0.647749
0.645754
0.643616
0.641335
0.638916
0.636359
0.633667
0.630844
0.627891
0.624813
0.621611
0.618289
0.61485
0.611298
0.607635
0.603867
0.599996
0.596027
0.591962
0.587807
0.583565
0.579241
0.574839
0.570362
0.565816
0.561206
0.556534
0.551807
0.547029
0.542204
0.537338
0.532435
0.5275
0.522538
0.517553
0.512551
0.507537
0.502515
0.497491
0.492469
0.487455
0.482453
0.477469
0.472507
0.467571
0.462668
0.457802
0.452977
0.448199
0.443472
0.438801
0.43419
0.429644
0.425168
0.420766
0.416441
0.4122
0.408045
0.40398
0.400011
0.39614
0.392372
0.38871
0.385158
0.381719
0.378397
0.375195
0.372116
0.369164
0.36634
0.363649
0.361092
0.358673
0.356393
0.354254
0.35226
0.350411
0.34871
0.347158
0.345758
0.344509
0.343414
0.342474
0.341689
0.34106
0.340588
0.340274
0.340117
0.659893
0.659736
0.659422
0.65895
0.658321
0.657536
0.656595
0.6555
0.654252
0.652851
0.651299
0.649598
0.647749
0.645755
0.643616
0.641336
0.638916
0.636359
0.633668
0.630844
0.627892
0.624813
0.621611
0.618289
0.61485
0.611298
0.607636
0.603867
0.599997
0.596027
0.591963
0.587808
0.583566
0.579241
0.574839
0.570362
0.565817
0.561206
0.556534
0.551807
0.547029
0.542205
0.537338
0.532435
0.5275
0.522538
0.517553
0.512551
0.507537
0.502515
0.497491
0.492469
0.487455
0.482453
0.477469
0.472506
0.467571
0.462668
0.457802
0.452977
0.448199
0.443472
0.438801
0.43419
0.429644
0.425168
0.420765
0.416441
0.412199
0.408044
0.40398
0.40001
0.39614
0.392371
0.388709
0.385157
0.381718
0.378396
0.375195
0.372116
0.369163
0.36634
0.363649
0.361092
0.358672
0.356392
0.354254
0.352259
0.350411
0.34871
0.347158
0.345757
0.344509
0.343414
0.342473
0.341688
0.34106
0.340588
0.340274
0.340117
0.659893
0.659737
0.659422
0.65895
0.658321
0.657536
0.656596
0.655501
0.654252
0.652851
0.651299
0.649598
0.64775
0.645755
0.643617
0.641336
0.638917
0.63636
0.633668
0.630845
0.627892
0.624813
0.621611
0.618289
0.61485
0.611298
0.607636
0.603868
0.599997
0.596027
0.591963
0.587808
0.583566
0.579242
0.574839
0.570363
0.565817
0.561206
0.556535
0.551808
0.547029
0.542205
0.537338
0.532435
0.5275
0.522538
0.517553
0.512551
0.507537
0.502515
0.497491
0.492469
0.487455
0.482453
0.477469
0.472506
0.467571
0.462668
0.457802
0.452977
0.448199
0.443472
0.438801
0.43419
0.429644
0.425168
0.420765
0.416441
0.412199
0.408044
0.40398
0.40001
0.396139
0.392371
0.388709
0.385157
0.381718
0.378396
0.375194
0.372115
0.369163
0.36634
0.363648
0.361091
0.358672
0.356392
0.354253
0.352259
0.35041
0.348709
0.347157
0.345757
0.344508
0.343413
0.342473
0.341688
0.341059
0.340587
0.340273
0.340116
0.659894
0.659737
0.659423
0.658951
0.658322
0.657537
0.656596
0.655501
0.654253
0.652852
0.6513
0.649599
0.64775
0.645755
0.643617
0.641337
0.638917
0.63636
0.633669
0.630845
0.627893
0.624814
0.621612
0.61829
0.614851
0.611298
0.607636
0.603868
0.599997
0.596028
0.591963
0.587808
0.583566
0.579242
0.574839
0.570363
0.565817
0.561206
0.556535
0.551808
0.547029
0.542205
0.537338
0.532435
0.5275
0.522538
0.517553
0.512551
0.507537
0.502515
0.497491
0.492469
0.487455
0.482453
0.477469
0.472506
0.467571
0.462668
0.457802
0.452977
0.448199
0.443472
0.4388
0.43419
0.429644
0.425167
0.420765
0.41644
0.412199
0.408044
0.403979
0.40001
0.396139
0.392371
0.388709
0.385156
0.381718
0.378396
0.375194
0.372115
0.369163
0.366339
0.363648
0.361091
0.358671
0.356391
0.354253
0.352258
0.35041
0.348709
0.347157
0.345756
0.344508
0.343413
0.342472
0.341687
0.341059
0.340587
0.340273
0.340116
0.659894
0.659738
0.659423
0.658951
0.658322
0.657537
0.656597
0.655502
0.654253
0.652852
0.6513
0.649599
0.64775
0.645756
0.643617
0.641337
0.638917
0.63636
0.633669
0.630845
0.627893
0.624814
0.621612
0.61829
0.614851
0.611299
0.607637
0.603868
0.599997
0.596028
0.591963
0.587808
0.583566
0.579242
0.574839
0.570363
0.565817
0.561206
0.556535
0.551808
0.547029
0.542205
0.537338
0.532435
0.5275
0.522538
0.517553
0.512551
0.507537
0.502515
0.497491
0.492469
0.487455
0.482453
0.477468
0.472506
0.467571
0.462668
0.457801
0.452977
0.448198
0.443471
0.4388
0.434189
0.429643
0.425167
0.420765
0.41644
0.412198
0.408043
0.403979
0.400009
0.396139
0.39237
0.388708
0.385156
0.381717
0.378395
0.375193
0.372115
0.369162
0.366339
0.363647
0.361091
0.358671
0.356391
0.354252
0.352258
0.350409
0.348708
0.347157
0.345756
0.344507
0.343412
0.342472
0.341687
0.341058
0.340587
0.340272
0.340116
0.659895
0.659738
0.659423
0.658952
0.658323
0.657538
0.656597
0.655502
0.654253
0.652852
0.651301
0.6496
0.647751
0.645756
0.643618
0.641337
0.638918
0.636361
0.633669
0.630846
0.627893
0.624814
0.621612
0.61829
0.614851
0.611299
0.607637
0.603869
0.599998
0.596028
0.591964
0.587808
0.583567
0.579242
0.57484
0.570363
0.565817
0.561206
0.556535
0.551808
0.54703
0.542205
0.537339
0.532435
0.5275
0.522538
0.517553
0.512551
0.507537
0.502515
0.497491
0.492469
0.487455
0.482453
0.477468
0.472506
0.467571
0.462668
0.457801
0.452977
0.448198
0.443471
0.4388
0.434189
0.429643
0.425167
0.420764
0.41644
0.412198
0.408043
0.403979
0.400009
0.396138
0.39237
0.388708
0.385156
0.381717
0.378395
0.375193
0.372114
0.369162
0.366339
0.363647
0.36109
0.358671
0.35639
0.354252
0.352258
0.350409
0.348708
0.347156
0.345756
0.344507
0.343412
0.342472
0.341687
0.341058
0.340586
0.340272
0.340115
0.659895
0.659738
0.659424
0.658952
0.658323
0.657538
0.656597
0.655502
0.654254
0.652853
0.651301
0.6496
0.647751
0.645756
0.643618
0.641338
0.638918
0.636361
0.633669
0.630846
0.627893
0.624815
0.621612
0.61829
0.614851
0.611299
0.607637
0.603869
0.599998
0.596028
0.591964
0.587809
0.583567
0.579242
0.57484
0.570363
0.565817
0.561206
0.556535
0.551808
0.54703
0.542205
0.537339
0.532435
0.5275
0.522538
0.517553
0.512551
0.507537
0.502515
0.497491
0.492469
0.487455
0.482453
0.477468
0.472506
0.467571
0.462667
0.457801
0.452976
0.448198
0.443471
0.4388
0.434189
0.429643
0.425167
0.420764
0.41644
0.412198
0.408043
0.403979
0.400009
0.396138
0.39237
0.388708
0.385156
0.381717
0.378395
0.375193
0.372114
0.369162
0.366338
0.363647
0.36109
0.35867
0.35639
0.354252
0.352257
0.350409
0.348708
0.347156
0.345755
0.344507
0.343412
0.342471
0.341686
0.341058
0.340586
0.340272
0.340115
0.659895
0.659739
0.659424
0.658952
0.658323
0.657538
0.656598
0.655503
0.654254
0.652853
0.651301
0.6496
0.647751
0.645757
0.643618
0.641338
0.638918
0.636361
0.63367
0.630846
0.627894
0.624815
0.621613
0.618291
0.614852
0.611299
0.607637
0.603869
0.599998
0.596028
0.591964
0.587809
0.583567
0.579242
0.57484
0.570363
0.565817
0.561206
0.556535
0.551808
0.54703
0.542205
0.537339
0.532435
0.5275
0.522538
0.517553
0.512551
0.507537
0.502515
0.497491
0.492469
0.487455
0.482453
0.477468
0.472506
0.467571
0.462667
0.457801
0.452976
0.448198
0.443471
0.4388
0.434189
0.429643
0.425166
0.420764
0.41644
0.412198
0.408043
0.403978
0.400009
0.396138
0.39237
0.388708
0.385155
0.381717
0.378395
0.375193
0.372114
0.369161
0.366338
0.363647
0.36109
0.35867
0.35639
0.354252
0.352257
0.350408
0.348707
0.347156
0.345755
0.344506
0.343411
0.342471
0.341686
0.341057
0.340586
0.340271
0.340115
0.659896
0.659739
0.659424
0.658952
0.658324
0.657539
0.656598
0.655503
0.654254
0.652853
0.651301
0.6496
0.647752
0.645757
0.643618
0.641338
0.638918
0.636361
0.63367
0.630846
0.627894
0.624815
0.621613
0.618291
0.614852
0.6113
0.607637
0.603869
0.599998
0.596028
0.591964
0.587809
0.583567
0.579243
0.57484
0.570363
0.565817
0.561207
0.556535
0.551808
0.54703
0.542205
0.537339
0.532435
0.5275
0.522538
0.517553
0.512551
0.507537
0.502515
0.497491
0.492469
0.487455
0.482453
0.477468
0.472506
0.46757
0.462667
0.457801
0.452976
0.448198
0.443471
0.4388
0.434189
0.429643
0.425166
0.420764
0.416439
0.412198
0.408042
0.403978
0.400009
0.396138
0.392369
0.388707
0.385155
0.381716
0.378394
0.375192
0.372114
0.369161
0.366338
0.363646
0.36109
0.35867
0.35639
0.354251
0.352257
0.350408
0.348707
0.347155
0.345755
0.344506
0.343411
0.342471
0.341686
0.341057
0.340585
0.340271
0.340114
0.659896
0.659739
0.659425
0.658953
0.658324
0.657539
0.656598
0.655503
0.654254
0.652853
0.651302
0.649601
0.647752
0.645757
0.643619
0.641338
0.638919
0.636362
0.63367
0.630847
0.627894
0.624815
0.621613
0.618291
0.614852
0.6113
0.607638
0.603869
0.599998
0.596029
0.591964
0.587809
0.583567
0.579243
0.57484
0.570363
0.565818
0.561207
0.556535
0.551808
0.54703
0.542205
0.537339
0.532435
0.5275
0.522538
0.517553
0.512551
0.507537
0.502515
0.497491
0.492469
0.487455
0.482453
0.477468
0.472506
0.46757
0.462667
0.457801
0.452976
0.448198
0.443471
0.438799
0.434189
0.429643
0.425166
0.420764
0.416439
0.412197
0.408042
0.403978
0.400008
0.396138
0.392369
0.388707
0.385155
0.381716
0.378394
0.375192
0.372113
0.369161
0.366338
0.363646
0.361089
0.35867
0.35639
0.354251
0.352257
0.350408
0.348707
0.347155
0.345755
0.344506
0.343411
0.342471
0.341686
0.341057
0.340585
0.340271
0.340114
0.659896
0.659739
0.659425
0.658953
0.658324
0.657539
0.656598
0.655503
0.654255
0.652854
0.651302
0.649601
0.647752
0.645757
0.643619
0.641338
0.638919
0.636362
0.63367
0.630847
0.627894
0.624815
0.621613
0.618291
0.614852
0.6113
0.607638
0.603869
0.599998
0.596029
0.591964
0.587809
0.583567
0.579243
0.57484
0.570364
0.565818
0.561207
0.556535
0.551808
0.54703
0.542205
0.537339
0.532435
0.5275
0.522538
0.517553
0.512551
0.507537
0.502515
0.497491
0.492469
0.487455
0.482453
0.477468
0.472506
0.46757
0.462667
0.457801
0.452976
0.448198
0.443471
0.438799
0.434188
0.429643
0.425166
0.420764
0.416439
0.412197
0.408042
0.403978
0.400008
0.396137
0.392369
0.388707
0.385155
0.381716
0.378394
0.375192
0.372113
0.369161
0.366337
0.363646
0.361089
0.35867
0.356389
0.354251
0.352256
0.350408
0.348707
0.347155
0.345754
0.344506
0.343411
0.34247
0.341686
0.341057
0.340585
0.340271
0.340114
0.659896
0.659739
0.659425
0.658953
0.658324
0.657539
0.656598
0.655503
0.654255
0.652854
0.651302
0.649601
0.647752
0.645757
0.643619
0.641339
0.638919
0.636362
0.63367
0.630847
0.627894
0.624815
0.621613
0.618291
0.614852
0.6113
0.607638
0.603869
0.599998
0.596029
0.591964
0.587809
0.583567
0.579243
0.57484
0.570364
0.565818
0.561207
0.556535
0.551808
0.54703
0.542205
0.537339
0.532435
0.5275
0.522538
0.517553
0.512551
0.507537
0.502515
0.497491
0.492469
0.487455
0.482453
0.477468
0.472506
0.46757
0.462667
0.457801
0.452976
0.448198
0.443471
0.438799
0.434188
0.429642
0.425166
0.420763
0.416439
0.412197
0.408042
0.403978
0.400008
0.396137
0.392369
0.388707
0.385155
0.381716
0.378394
0.375192
0.372113
0.369161
0.366337
0.363646
0.361089
0.358669
0.356389
0.354251
0.352256
0.350408
0.348707
0.347155
0.345754
0.344506
0.343411
0.34247
0.341685
0.341057
0.340585
0.340271
0.340114
0.659896
0.659739
0.659425
0.658953
0.658324
0.657539
0.656599
0.655503
0.654255
0.652854
0.651302
0.649601
0.647752
0.645757
0.643619
0.641339
0.638919
0.636362
0.63367
0.630847
0.627894
0.624815
0.621613
0.618291
0.614852
0.6113
0.607638
0.603869
0.599998
0.596029
0.591964
0.587809
0.583567
0.579243
0.57484
0.570364
0.565818
0.561207
0.556535
0.551808
0.54703
0.542205
0.537339
0.532435
0.5275
0.522538
0.517553
0.512551
0.507537
0.502515
0.497491
0.492469
0.487455
0.482453
0.477468
0.472506
0.46757
0.462667
0.457801
0.452976
0.448198
0.443471
0.438799
0.434188
0.429642
0.425166
0.420763
0.416439
0.412197
0.408042
0.403978
0.400008
0.396137
0.392369
0.388707
0.385155
0.381716
0.378394
0.375192
0.372113
0.369161
0.366337
0.363646
0.361089
0.358669
0.356389
0.354251
0.352256
0.350408
0.348707
0.347155
0.345754
0.344506
0.343411
0.34247
0.341685
0.341057
0.340585
0.340271
0.340114
0.659896
0.659739
0.659425
0.658953
0.658324
0.657539
0.656599
0.655503
0.654255
0.652854
0.651302
0.649601
0.647752
0.645757
0.643619
0.641339
0.638919
0.636362
0.63367
0.630847
0.627894
0.624815
0.621613
0.618291
0.614852
0.6113
0.607638
0.603869
0.599998
0.596029
0.591964
0.587809
0.583567
0.579243
0.57484
0.570364
0.565818
0.561207
0.556535
0.551808
0.54703
0.542205
0.537339
0.532435
0.5275
0.522538
0.517553
0.512551
0.507537
0.502515
0.497491
0.492469
0.487455
0.482453
0.477468
0.472505
0.46757
0.462667
0.457801
0.452976
0.448198
0.44347
0.438799
0.434188
0.429642
0.425166
0.420763
0.416439
0.412197
0.408042
0.403978
0.400008
0.396137
0.392369
0.388707
0.385155
0.381716
0.378394
0.375192
0.372113
0.369161
0.366337
0.363646
0.361089
0.358669
0.356389
0.354251
0.352256
0.350408
0.348707
0.347155
0.345754
0.344506
0.343411
0.34247
0.341685
0.341057
0.340585
0.340271
0.340114
0.659896
0.659739
0.659425
0.658953
0.658324
0.657539
0.656599
0.655503
0.654255
0.652854
0.651302
0.649601
0.647752
0.645757
0.643619
0.641339
0.638919
0.636362
0.63367
0.630847
0.627894
0.624815
0.621613
0.618291
0.614852
0.6113
0.607638
0.603869
0.599998
0.596029
0.591964
0.587809
0.583567
0.579243
0.57484
0.570364
0.565818
0.561207
0.556535
0.551808
0.54703
0.542205
0.537339
0.532435
0.5275
0.522538
0.517553
0.512551
0.507537
0.502515
0.497491
0.492469
0.487454
0.482452
0.477468
0.472505
0.46757
0.462667
0.457801
0.452976
0.448198
0.44347
0.438799
0.434188
0.429642
0.425166
0.420763
0.416439
0.412197
0.408042
0.403978
0.400008
0.396137
0.392369
0.388707
0.385155
0.381716
0.378394
0.375192
0.372113
0.369161
0.366337
0.363646
0.361089
0.358669
0.356389
0.354251
0.352256
0.350408
0.348707
0.347155
0.345754
0.344506
0.343411
0.34247
0.341685
0.341057
0.340585
0.340271
0.340114
0.659896
0.659739
0.659425
0.658953
0.658324
0.657539
0.656599
0.655503
0.654255
0.652854
0.651302
0.649601
0.647752
0.645757
0.643619
0.641339
0.638919
0.636362
0.63367
0.630847
0.627894
0.624815
0.621613
0.618291
0.614852
0.6113
0.607638
0.603869
0.599998
0.596029
0.591964
0.587809
0.583567
0.579243
0.57484
0.570363
0.565818
0.561207
0.556535
0.551808
0.54703
0.542205
0.537339
0.532435
0.5275
0.522538
0.517553
0.512551
0.507537
0.502515
0.497491
0.492469
0.487454
0.482452
0.477468
0.472505
0.46757
0.462667
0.457801
0.452976
0.448198
0.44347
0.438799
0.434188
0.429642
0.425166
0.420763
0.416439
0.412197
0.408042
0.403978
0.400008
0.396137
0.392369
0.388707
0.385155
0.381716
0.378394
0.375192
0.372113
0.369161
0.366337
0.363646
0.361089
0.358669
0.356389
0.354251
0.352256
0.350408
0.348707
0.347155
0.345754
0.344506
0.343411
0.34247
0.341685
0.341057
0.340585
0.340271
0.340114
0.659896
0.659739
0.659425
0.658953
0.658324
0.657539
0.656598
0.655503
0.654255
0.652854
0.651302
0.649601
0.647752
0.645757
0.643619
0.641339
0.638919
0.636362
0.63367
0.630847
0.627894
0.624815
0.621613
0.618291
0.614852
0.6113
0.607638
0.603869
0.599998
0.596029
0.591964
0.587809
0.583567
0.579243
0.57484
0.570363
0.565817
0.561207
0.556535
0.551808
0.54703
0.542205
0.537339
0.532435
0.5275
0.522538
0.517553
0.512551
0.507536
0.502515
0.497491
0.492469
0.487454
0.482452
0.477468
0.472505
0.46757
0.462667
0.457801
0.452976
0.448198
0.44347
0.438799
0.434188
0.429642
0.425166
0.420763
0.416439
0.412197
0.408042
0.403978
0.400008
0.396137
0.392369
0.388707
0.385155
0.381716
0.378394
0.375192
0.372113
0.369161
0.366337
0.363646
0.361089
0.358669
0.356389
0.354251
0.352256
0.350408
0.348707
0.347155
0.345754
0.344506
0.343411
0.34247
0.341685
0.341057
0.340585
0.340271
0.340114
0.659896
0.659739
0.659425
0.658953
0.658324
0.657539
0.656598
0.655503
0.654255
0.652854
0.651302
0.649601
0.647752
0.645757
0.643619
0.641338
0.638919
0.636362
0.63367
0.630847
0.627894
0.624815
0.621613
0.618291
0.614852
0.6113
0.607638
0.603869
0.599998
0.596029
0.591964
0.587809
0.583567
0.579242
0.57484
0.570363
0.565817
0.561206
0.556535
0.551808
0.54703
0.542205
0.537338
0.532435
0.5275
0.522537
0.517553
0.512551
0.507536
0.502515
0.497491
0.492469
0.487454
0.482452
0.477468
0.472505
0.46757
0.462667
0.457801
0.452976
0.448198
0.44347
0.438799
0.434188
0.429642
0.425166
0.420763
0.416439
0.412197
0.408042
0.403978
0.400008
0.396137
0.392369
0.388707
0.385155
0.381716
0.378394
0.375192
0.372113
0.369161
0.366337
0.363646
0.361089
0.358669
0.356389
0.354251
0.352256
0.350408
0.348707
0.347155
0.345754
0.344506
0.343411
0.34247
0.341686
0.341057
0.340585
0.340271
0.340114
0.659896
0.659739
0.659425
0.658953
0.658324
0.657539
0.656598
0.655503
0.654254
0.652853
0.651302
0.649601
0.647752
0.645757
0.643619
0.641338
0.638918
0.636362
0.63367
0.630847
0.627894
0.624815
0.621613
0.618291
0.614852
0.6113
0.607637
0.603869
0.599998
0.596028
0.591964
0.587809
0.583567
0.579242
0.57484
0.570363
0.565817
0.561206
0.556535
0.551808
0.54703
0.542205
0.537338
0.532435
0.5275
0.522537
0.517553
0.512551
0.507536
0.502515
0.497491
0.492469
0.487454
0.482452
0.477468
0.472505
0.46757
0.462667
0.457801
0.452976
0.448198
0.44347
0.438799
0.434188
0.429642
0.425166
0.420763
0.416439
0.412197
0.408042
0.403978
0.400008
0.396137
0.392369
0.388707
0.385155
0.381716
0.378394
0.375192
0.372113
0.369161
0.366337
0.363646
0.361089
0.35867
0.356389
0.354251
0.352257
0.350408
0.348707
0.347155
0.345755
0.344506
0.343411
0.342471
0.341686
0.341057
0.340585
0.340271
0.340114
0.659896
0.659739
0.659424
0.658952
0.658324
0.657539
0.656598
0.655503
0.654254
0.652853
0.651302
0.6496
0.647752
0.645757
0.643618
0.641338
0.638918
0.636361
0.63367
0.630846
0.627894
0.624815
0.621613
0.618291
0.614852
0.611299
0.607637
0.603869
0.599998
0.596028
0.591964
0.587809
0.583567
0.579242
0.57484
0.570363
0.565817
0.561206
0.556535
0.551808
0.547029
0.542205
0.537338
0.532435
0.5275
0.522537
0.517553
0.512551
0.507536
0.502515
0.497491
0.492469
0.487454
0.482452
0.477468
0.472505
0.46757
0.462667
0.457801
0.452976
0.448198
0.443471
0.438799
0.434188
0.429642
0.425166
0.420764
0.416439
0.412197
0.408042
0.403978
0.400008
0.396137
0.392369
0.388707
0.385155
0.381716
0.378394
0.375192
0.372113
0.369161
0.366338
0.363646
0.361089
0.35867
0.35639
0.354251
0.352257
0.350408
0.348707
0.347155
0.345755
0.344506
0.343411
0.342471
0.341686
0.341057
0.340586
0.340271
0.340114
0.659895
0.659739
0.659424
0.658952
0.658323
0.657538
0.656598
0.655503
0.654254
0.652853
0.651301
0.6496
0.647751
0.645757
0.643618
0.641338
0.638918
0.636361
0.63367
0.630846
0.627893
0.624815
0.621613
0.61829
0.614851
0.611299
0.607637
0.603869
0.599998
0.596028
0.591964
0.587808
0.583567
0.579242
0.57484
0.570363
0.565817
0.561206
0.556535
0.551808
0.547029
0.542205
0.537338
0.532435
0.5275
0.522537
0.517553
0.512551
0.507536
0.502515
0.49749
0.492469
0.487454
0.482452
0.477468
0.472505
0.46757
0.462667
0.457801
0.452976
0.448198
0.443471
0.438799
0.434188
0.429643
0.425166
0.420764
0.416439
0.412197
0.408042
0.403978
0.400008
0.396138
0.392369
0.388707
0.385155
0.381716
0.378394
0.375192
0.372114
0.369161
0.366338
0.363646
0.36109
0.35867
0.35639
0.354251
0.352257
0.350408
0.348707
0.347156
0.345755
0.344506
0.343411
0.342471
0.341686
0.341058
0.340586
0.340271
0.340115
0.659895
0.659738
0.659424
0.658952
0.658323
0.657538
0.656598
0.655502
0.654254
0.652853
0.651301
0.6496
0.647751
0.645756
0.643618
0.641338
0.638918
0.636361
0.633669
0.630846
0.627893
0.624814
0.621612
0.61829
0.614851
0.611299
0.607637
0.603868
0.599998
0.596028
0.591963
0.587808
0.583566
0.579242
0.574839
0.570363
0.565817
0.561206
0.556535
0.551807
0.547029
0.542204
0.537338
0.532435
0.5275
0.522537
0.517553
0.512551
0.507536
0.502515
0.49749
0.492469
0.487454
0.482452
0.477468
0.472505
0.46757
0.462667
0.457801
0.452976
0.448198
0.443471
0.438799
0.434189
0.429643
0.425166
0.420764
0.416439
0.412198
0.408042
0.403978
0.400009
0.396138
0.39237
0.388707
0.385155
0.381717
0.378395
0.375193
0.372114
0.369161
0.366338
0.363647
0.36109
0.35867
0.35639
0.354252
0.352257
0.350409
0.348708
0.347156
0.345755
0.344507
0.343412
0.342471
0.341686
0.341058
0.340586
0.340272
0.340115
0.659895
0.659738
0.659424
0.658952
0.658323
0.657538
0.656597
0.655502
0.654253
0.652852
0.651301
0.6496
0.647751
0.645756
0.643618
0.641337
0.638918
0.636361
0.633669
0.630846
0.627893
0.624814
0.621612
0.61829
0.614851
0.611299
0.607637
0.603868
0.599997
0.596028
0.591963
0.587808
0.583566
0.579242
0.574839
0.570363
0.565817
0.561206
0.556534
0.551807
0.547029
0.542204
0.537338
0.532435
0.5275
0.522537
0.517553
0.512551
0.507536
0.502514
0.49749
0.492469
0.487454
0.482452
0.477468
0.472505
0.46757
0.462667
0.457801
0.452976
0.448198
0.443471
0.438799
0.434189
0.429643
0.425166
0.420764
0.41644
0.412198
0.408043
0.403978
0.400009
0.396138
0.39237
0.388708
0.385156
0.381717
0.378395
0.375193
0.372114
0.369162
0.366338
0.363647
0.36109
0.35867
0.35639
0.354252
0.352258
0.350409
0.348708
0.347156
0.345756
0.344507
0.343412
0.342472
0.341687
0.341058
0.340586
0.340272
0.340115
0.659895
0.659738
0.659423
0.658951
0.658323
0.657537
0.656597
0.655502
0.654253
0.652852
0.6513
0.649599
0.64775
0.645756
0.643617
0.641337
0.638917
0.63636
0.633669
0.630845
0.627893
0.624814
0.621612
0.61829
0.614851
0.611298
0.607636
0.603868
0.599997
0.596027
0.591963
0.587808
0.583566
0.579242
0.574839
0.570362
0.565817
0.561206
0.556534
0.551807
0.547029
0.542204
0.537338
0.532435
0.527499
0.522537
0.517552
0.512551
0.507536
0.502514
0.49749
0.492469
0.487454
0.482452
0.477468
0.472505
0.46757
0.462667
0.457801
0.452976
0.448198
0.443471
0.4388
0.434189
0.429643
0.425167
0.420764
0.41644
0.412198
0.408043
0.403979
0.400009
0.396138
0.39237
0.388708
0.385156
0.381717
0.378395
0.375193
0.372114
0.369162
0.366339
0.363647
0.36109
0.358671
0.356391
0.354252
0.352258
0.350409
0.348708
0.347157
0.345756
0.344507
0.343412
0.342472
0.341687
0.341058
0.340587
0.340272