/*--------------------------------*- C++ -*----------------------------------*\
  =========                 |
  \\      /  F ield         | OpenFOAM: The Open Source CFD Toolbox
   \\    /   O peration     | Website:  https://openfoam.org
    \\  /    A nd           | Version:  6
     \\/     M anipulation  |
\*---------------------------------------------------------------------------*/
FoamFile
{
    version     2.0;
    format      ascii;
    class       volScalarField;
    location    "9";
    object      T;
}
// * * * * * * * * * * * * * * * * * * * * * * * * * * * * * * * * * * * * * //

dimensions      [0 0 0 1 0 0 0];

internalField   nonuniform List<scalar> 
5000
(
0.761802
0.761546
0.761032
0.760261
0.759234
0.757951
0.756414
0.754625
0.752584
0.750295
0.747759
0.744979
0.741957
0.738696
0.7352
0.731472
0.727516
0.723335
0.718933
0.714316
0.709486
0.70445
0.699211
0.693776
0.688149
0.682336
0.676342
0.670174
0.663838
0.657339
0.650684
0.64388
0.636934
0.629852
0.622641
0.615308
0.607861
0.600307
0.592653
0.584908
0.577078
0.569172
0.561197
0.553161
0.545072
0.536939
0.528769
0.52057
0.512351
0.50412
0.495885
0.487654
0.479435
0.471236
0.463066
0.454933
0.446844
0.438808
0.430833
0.422927
0.415097
0.407352
0.399698
0.392144
0.384697
0.377365
0.370154
0.363072
0.356125
0.349321
0.342667
0.336168
0.329832
0.323664
0.31767
0.311857
0.30623
0.300795
0.295556
0.29052
0.285691
0.281073
0.276672
0.272491
0.268534
0.264806
0.26131
0.25805
0.255028
0.252248
0.249712
0.247423
0.245382
0.243593
0.242056
0.240773
0.239746
0.238975
0.238461
0.238204
0.761804
0.761548
0.761034
0.760263
0.759236
0.757953
0.756416
0.754626
0.752586
0.750297
0.747761
0.74498
0.741958
0.738698
0.735202
0.731474
0.727517
0.723336
0.718935
0.714317
0.709488
0.704451
0.699213
0.693777
0.68815
0.682337
0.676343
0.670175
0.663839
0.65734
0.650685
0.643881
0.636935
0.629852
0.622641
0.615309
0.607862
0.600308
0.592654
0.584908
0.577079
0.569172
0.561197
0.553161
0.545073
0.536939
0.528769
0.520571
0.512351
0.50412
0.495885
0.487654
0.479434
0.471236
0.463066
0.454932
0.446844
0.438808
0.430833
0.422926
0.415097
0.407351
0.399698
0.392144
0.384697
0.377364
0.370153
0.363071
0.356124
0.34932
0.342666
0.336167
0.32983
0.323662
0.317669
0.311856
0.306229
0.300793
0.295555
0.290519
0.285689
0.281072
0.27667
0.272489
0.268533
0.264805
0.261309
0.258048
0.255027
0.252246
0.24971
0.247421
0.245381
0.243591
0.242054
0.240772
0.239744
0.238973
0.238459
0.238203
0.761805
0.761549
0.761035
0.760264
0.759237
0.757954
0.756417
0.754628
0.752587
0.750298
0.747762
0.744981
0.74196
0.738699
0.735203
0.731475
0.727519
0.723337
0.718936
0.714318
0.709489
0.704452
0.699214
0.693778
0.688151
0.682338
0.676344
0.670176
0.663839
0.657341
0.650686
0.643882
0.636935
0.629853
0.622642
0.615309
0.607862
0.600308
0.592654
0.584909
0.577079
0.569173
0.561197
0.553162
0.545073
0.536939
0.528769
0.520571
0.512351
0.50412
0.495885
0.487653
0.479434
0.471236
0.463065
0.454932
0.446843
0.438807
0.430832
0.422926
0.415096
0.407351
0.399697
0.392143
0.384696
0.377363
0.370152
0.36307
0.356123
0.349319
0.342665
0.336166
0.329829
0.323661
0.317668
0.311855
0.306228
0.300792
0.295554
0.290517
0.285688
0.28107
0.276669
0.272488
0.268531
0.264804
0.261308
0.258047
0.255025
0.252245
0.249709
0.24742
0.245379
0.24359
0.242053
0.24077
0.239743
0.238972
0.238458
0.238202
0.761807
0.761551
0.761037
0.760266
0.759238
0.757956
0.756419
0.754629
0.752589
0.750299
0.747763
0.744983
0.741961
0.7387
0.735204
0.731476
0.72752
0.723339
0.718937
0.714319
0.70949
0.704453
0.699215
0.693779
0.688152
0.682339
0.676345
0.670177
0.66384
0.657341
0.650687
0.643883
0.636936
0.629854
0.622643
0.61531
0.607863
0.600309
0.592655
0.584909
0.577079
0.569173
0.561198
0.553162
0.545073
0.53694
0.528769
0.520571
0.512351
0.50412
0.495885
0.487653
0.479434
0.471235
0.463065
0.454932
0.446843
0.438807
0.430832
0.422926
0.415096
0.40735
0.399696
0.392142
0.384695
0.377363
0.370152
0.363069
0.356123
0.349319
0.342664
0.336165
0.329829
0.32366
0.317667
0.311854
0.306227
0.300791
0.295553
0.290516
0.285687
0.281069
0.276668
0.272487
0.26853
0.264802
0.261306
0.258046
0.255024
0.252244
0.249708
0.247418
0.245378
0.243589
0.242052
0.240769
0.239742
0.238971
0.238457
0.238201
0.761808
0.761552
0.761038
0.760267
0.75924
0.757957
0.75642
0.75463
0.75259
0.7503
0.747764
0.744984
0.741962
0.738701
0.735205
0.731477
0.727521
0.72334
0.718938
0.71432
0.709491
0.704454
0.699216
0.69378
0.688153
0.68234
0.676346
0.670178
0.663841
0.657342
0.650687
0.643883
0.636937
0.629854
0.622643
0.61531
0.607863
0.600309
0.592655
0.58491
0.57708
0.569173
0.561198
0.553162
0.545073
0.53694
0.528769
0.520571
0.512351
0.50412
0.495885
0.487653
0.479434
0.471235
0.463065
0.454931
0.446843
0.438807
0.430832
0.422925
0.415095
0.40735
0.399696
0.392142
0.384695
0.377362
0.370151
0.363068
0.356122
0.349318
0.342663
0.336164
0.329828
0.32366
0.317666
0.311853
0.306226
0.30079
0.295552
0.290515
0.285686
0.281068
0.276667
0.272486
0.268529
0.264801
0.261305
0.258045
0.255023
0.252243
0.249707
0.247417
0.245377
0.243587
0.242051
0.240768
0.239741
0.23897
0.238456
0.2382
0.761809
0.761553
0.761039
0.760268
0.759241
0.757958
0.756421
0.754632
0.752591
0.750302
0.747765
0.744985
0.741963
0.738703
0.735206
0.731478
0.727522
0.723341
0.718939
0.714321
0.709492
0.704455
0.699217
0.693781
0.688154
0.68234
0.676347
0.670178
0.663842
0.657343
0.650688
0.643884
0.636937
0.629855
0.622644
0.615311
0.607864
0.600309
0.592656
0.58491
0.57708
0.569173
0.561198
0.553162
0.545073
0.53694
0.52877
0.520571
0.512351
0.50412
0.495885
0.487653
0.479434
0.471235
0.463065
0.454931
0.446842
0.438806
0.430831
0.422925
0.415095
0.407349
0.399695
0.392141
0.384694
0.377361
0.37015
0.363068
0.356121
0.349317
0.342662
0.336163
0.329827
0.323659
0.317665
0.311852
0.306225
0.300789
0.295551
0.290514
0.285685
0.281067
0.276665
0.272484
0.268528
0.2648
0.261304
0.258044
0.255022
0.252241
0.249705
0.247416
0.245376
0.243586
0.242049
0.240767
0.23974
0.238969
0.238455
0.238199
0.76181
0.761554
0.76104
0.760269
0.759242
0.757959
0.756422
0.754633
0.752592
0.750303
0.747767
0.744986
0.741964
0.738704
0.735208
0.731479
0.727523
0.723342
0.71894
0.714322
0.709493
0.704456
0.699217
0.693782
0.688155
0.682341
0.676347
0.670179
0.663842
0.657343
0.650689
0.643885
0.636938
0.629855
0.622644
0.615311
0.607864
0.60031
0.592656
0.58491
0.57708
0.569174
0.561198
0.553162
0.545074
0.53694
0.52877
0.520571
0.512351
0.50412
0.495885
0.487653
0.479434
0.471235
0.463064
0.454931
0.446842
0.438806
0.430831
0.422924
0.415094
0.407349
0.399695
0.392141
0.384693
0.377361
0.37015
0.363067
0.35612
0.349316
0.342662
0.336163
0.329826
0.323658
0.317664
0.311851
0.306224
0.300788
0.29555
0.290513
0.285684
0.281066
0.276664
0.272483
0.268527
0.264799
0.261303
0.258042
0.255021
0.25224
0.249704
0.247415
0.245375
0.243585
0.242048
0.240766
0.239739
0.238968
0.238454
0.238198
0.761812
0.761555
0.761041
0.76027
0.759243
0.75796
0.756423
0.754634
0.752593
0.750304
0.747768
0.744987
0.741965
0.738705
0.735208
0.73148
0.727524
0.723343
0.718941
0.714323
0.709493
0.704457
0.699218
0.693783
0.688155
0.682342
0.676348
0.67018
0.663843
0.657344
0.650689
0.643885
0.636938
0.629856
0.622645
0.615312
0.607864
0.60031
0.592656
0.584911
0.577081
0.569174
0.561199
0.553163
0.545074
0.53694
0.52877
0.520571
0.512351
0.50412
0.495884
0.487653
0.479434
0.471235
0.463064
0.454931
0.446842
0.438806
0.430831
0.422924
0.415094
0.407348
0.399694
0.39214
0.384693
0.37736
0.370149
0.363067
0.35612
0.349316
0.342661
0.336162
0.329825
0.323657
0.317663
0.31185
0.306223
0.300787
0.295549
0.290512
0.285683
0.281065
0.276664
0.272482
0.268526
0.264798
0.261302
0.258041
0.25502
0.252239
0.249703
0.247414
0.245374
0.243584
0.242047
0.240765
0.239738
0.238967
0.238453
0.238197
0.761813
0.761556
0.761043
0.760271
0.759244
0.757961
0.756424
0.754635
0.752594
0.750305
0.747769
0.744988
0.741966
0.738705
0.735209
0.731481
0.727525
0.723343
0.718942
0.714324
0.709494
0.704458
0.699219
0.693783
0.688156
0.682343
0.676349
0.670181
0.663844
0.657345
0.65069
0.643886
0.636939
0.629856
0.622645
0.615312
0.607865
0.600311
0.592657
0.584911
0.577081
0.569174
0.561199
0.553163
0.545074
0.53694
0.52877
0.520571
0.512351
0.50412
0.495884
0.487653
0.479433
0.471234
0.463064
0.45493
0.446842
0.438805
0.43083
0.422924
0.415094
0.407348
0.399694
0.39214
0.384692
0.37736
0.370148
0.363066
0.356119
0.349315
0.34266
0.336161
0.329825
0.323656
0.317663
0.311849
0.306222
0.300787
0.295548
0.290512
0.285682
0.281064
0.276663
0.272482
0.268525
0.264797
0.261301
0.258041
0.255019
0.252238
0.249702
0.247413
0.245373
0.243583
0.242046
0.240764
0.239737
0.238966
0.238452
0.238196
0.761814
0.761557
0.761043
0.760272
0.759245
0.757962
0.756425
0.754636
0.752595
0.750306
0.747769
0.744989
0.741967
0.738706
0.73521
0.731482
0.727525
0.723344
0.718943
0.714325
0.709495
0.704458
0.69922
0.693784
0.688157
0.682343
0.676349
0.670181
0.663844
0.657345
0.65069
0.643886
0.636939
0.629857
0.622645
0.615312
0.607865
0.600311
0.592657
0.584911
0.577081
0.569174
0.561199
0.553163
0.545074
0.53694
0.52877
0.520571
0.512351
0.50412
0.495884
0.487653
0.479433
0.471234
0.463064
0.45493
0.446841
0.438805
0.43083
0.422923
0.415093
0.407347
0.399694
0.392139
0.384692
0.377359
0.370148
0.363065
0.356119
0.349314
0.34266
0.336161
0.329824
0.323656
0.317662
0.311849
0.306221
0.300786
0.295547
0.290511
0.285681
0.281063
0.276662
0.272481
0.268524
0.264796
0.2613
0.25804
0.255018
0.252237
0.249701
0.247412
0.245372
0.243582
0.242046
0.240763
0.239736
0.238965
0.238451
0.238195
0.761814
0.761558
0.761044
0.760273
0.759246
0.757963
0.756426
0.754637
0.752596
0.750307
0.74777
0.74499
0.741968
0.738707
0.735211
0.731483
0.727526
0.723345
0.718943
0.714325
0.709496
0.704459
0.69922
0.693785
0.688157
0.682344
0.67635
0.670182
0.663845
0.657346
0.650691
0.643887
0.63694
0.629857
0.622646
0.615313
0.607866
0.600311
0.592657
0.584911
0.577081
0.569175
0.561199
0.553163
0.545074
0.53694
0.52877
0.520571
0.512351
0.50412
0.495884
0.487653
0.479433
0.471234
0.463064
0.45493
0.446841
0.438805
0.43083
0.422923
0.415093
0.407347
0.399693
0.392139
0.384692
0.377359
0.370147
0.363065
0.356118
0.349314
0.342659
0.33616
0.329823
0.323655
0.317661
0.311848
0.306221
0.300785
0.295547
0.29051
0.28568
0.281063
0.276661
0.27248
0.268523
0.264795
0.261299
0.258039
0.255017
0.252237
0.249701
0.247411
0.245371
0.243582
0.242045
0.240762
0.239735
0.238964
0.23845
0.238194
0.761815
0.761559
0.761045
0.760274
0.759247
0.757964
0.756427
0.754637
0.752597
0.750307
0.747771
0.744991
0.741969
0.738708
0.735212
0.731484
0.727527
0.723346
0.718944
0.714326
0.709496
0.70446
0.699221
0.693785
0.688158
0.682344
0.676351
0.670182
0.663845
0.657346
0.650691
0.643887
0.63694
0.629857
0.622646
0.615313
0.607866
0.600311
0.592657
0.584912
0.577081
0.569175
0.561199
0.553163
0.545074
0.53694
0.52877
0.520571
0.512351
0.50412
0.495884
0.487652
0.479433
0.471234
0.463064
0.45493
0.446841
0.438805
0.430829
0.422923
0.415093
0.407347
0.399693
0.392138
0.384691
0.377358
0.370147
0.363064
0.356118
0.349313
0.342659
0.33616
0.329823
0.323654
0.317661
0.311847
0.30622
0.300785
0.295546
0.290509
0.28568
0.281062
0.27666
0.272479
0.268523
0.264795
0.261299
0.258038
0.255016
0.252236
0.2497
0.247411
0.24537
0.243581
0.242044
0.240761
0.239734
0.238963
0.23845
0.238194
0.761816
0.76156
0.761046
0.760275
0.759247
0.757965
0.756428
0.754638
0.752598
0.750308
0.747772
0.744991
0.741969
0.738709
0.735212
0.731484
0.727528
0.723346
0.718945
0.714327
0.709497
0.70446
0.699221
0.693786
0.688158
0.682345
0.676351
0.670183
0.663846
0.657347
0.650692
0.643887
0.63694
0.629858
0.622646
0.615313
0.607866
0.600312
0.592658
0.584912
0.577082
0.569175
0.561199
0.553163
0.545074
0.53694
0.52877
0.520571
0.512351
0.50412
0.495884
0.487652
0.479433
0.471234
0.463063
0.45493
0.446841
0.438804
0.430829
0.422922
0.415092
0.407346
0.399692
0.392138
0.384691
0.377358
0.370147
0.363064
0.356117
0.349313
0.342658
0.336159
0.329822
0.323654
0.31766
0.311847
0.30622
0.300784
0.295545
0.290509
0.285679
0.281061
0.27666
0.272479
0.268522
0.264794
0.261298
0.258037
0.255016
0.252235
0.249699
0.24741
0.24537
0.24358
0.242043
0.240761
0.239733
0.238963
0.238449
0.238193
0.761817
0.761561
0.761047
0.760276
0.759248
0.757965
0.756428
0.754639
0.752598
0.750309
0.747772
0.744992
0.74197
0.738709
0.735213
0.731485
0.727528
0.723347
0.718945
0.714327
0.709497
0.704461
0.699222
0.693786
0.688159
0.682345
0.676351
0.670183
0.663846
0.657347
0.650692
0.643888
0.636941
0.629858
0.622647
0.615314
0.607866
0.600312
0.592658
0.584912
0.577082
0.569175
0.5612
0.553163
0.545074
0.53694
0.52877
0.520571
0.512351
0.50412
0.495884
0.487652
0.479433
0.471234
0.463063
0.454929
0.44684
0.438804
0.430829
0.422922
0.415092
0.407346
0.399692
0.392138
0.38469
0.377357
0.370146
0.363064
0.356117
0.349313
0.342658
0.336159
0.329822
0.323653
0.31766
0.311846
0.306219
0.300783
0.295545
0.290508
0.285679
0.281061
0.276659
0.272478
0.268521
0.264793
0.261297
0.258037
0.255015
0.252235
0.249699
0.247409
0.245369
0.243579
0.242043
0.24076
0.239733
0.238962
0.238448
0.238192
0.761817
0.761561
0.761047
0.760276
0.759249
0.757966
0.756429
0.754639
0.752599
0.750309
0.747773
0.744993
0.74197
0.73871
0.735214
0.731485
0.727529
0.723347
0.718946
0.714328
0.709498
0.704461
0.699222
0.693787
0.688159
0.682346
0.676352
0.670183
0.663846
0.657347
0.650692
0.643888
0.636941
0.629858
0.622647
0.615314
0.607867
0.600312
0.592658
0.584912
0.577082
0.569175
0.5612
0.553163
0.545074
0.536941
0.52877
0.520571
0.512351
0.50412
0.495884
0.487652
0.479433
0.471234
0.463063
0.454929
0.44684
0.438804
0.430829
0.422922
0.415092
0.407346
0.399692
0.392137
0.38469
0.377357
0.370146
0.363063
0.356116
0.349312
0.342657
0.336158
0.329821
0.323653
0.317659
0.311846
0.306218
0.300783
0.295544
0.290508
0.285678
0.28106
0.276659
0.272477
0.268521
0.264793
0.261297
0.258036
0.255014
0.252234
0.249698
0.247409
0.245368
0.243579
0.242042
0.24076
0.239732
0.238961
0.238448
0.238192
0.761818
0.761562
0.761048
0.760277
0.759249
0.757966
0.756429
0.75464
0.752599
0.75031
0.747774
0.744993
0.741971
0.73871
0.735214
0.731486
0.727529
0.723348
0.718946
0.714328
0.709498
0.704462
0.699223
0.693787
0.68816
0.682346
0.676352
0.670184
0.663847
0.657348
0.650693
0.643888
0.636941
0.629859
0.622647
0.615314
0.607867
0.600312
0.592658
0.584912
0.577082
0.569175
0.5612
0.553163
0.545074
0.536941
0.52877
0.520571
0.512351
0.50412
0.495884
0.487652
0.479433
0.471234
0.463063
0.454929
0.44684
0.438804
0.430828
0.422922
0.415091
0.407346
0.399692
0.392137
0.38469
0.377357
0.370145
0.363063
0.356116
0.349312
0.342657
0.336158
0.329821
0.323653
0.317659
0.311845
0.306218
0.300782
0.295544
0.290507
0.285678
0.28106
0.276658
0.272477
0.26852
0.264792
0.261296
0.258036
0.255014
0.252234
0.249697
0.247408
0.245368
0.243578
0.242042
0.240759
0.239732
0.238961
0.238447
0.238191
0.761818
0.761562
0.761048
0.760277
0.75925
0.757967
0.75643
0.75464
0.7526
0.75031
0.747774
0.744993
0.741971
0.738711
0.735214
0.731486
0.72753
0.723348
0.718946
0.714328
0.709499
0.704462
0.699223
0.693787
0.68816
0.682346
0.676352
0.670184
0.663847
0.657348
0.650693
0.643888
0.636942
0.629859
0.622647
0.615314
0.607867
0.600312
0.592658
0.584912
0.577082
0.569175
0.5612
0.553164
0.545074
0.536941
0.52877
0.520571
0.512351
0.504119
0.495884
0.487652
0.479433
0.471233
0.463063
0.454929
0.44684
0.438804
0.430828
0.422921
0.415091
0.407345
0.399691
0.392137
0.38469
0.377357
0.370145
0.363063
0.356116
0.349311
0.342657
0.336157
0.329821
0.323652
0.317658
0.311845
0.306218
0.300782
0.295543
0.290507
0.285677
0.281059
0.276658
0.272477
0.26852
0.264792
0.261296
0.258035
0.255013
0.252233
0.249697
0.247408
0.245367
0.243578
0.242041
0.240759
0.239731
0.238961
0.238447
0.238191
0.761819
0.761563
0.761049
0.760278
0.75925
0.757967
0.75643
0.754641
0.7526
0.750311
0.747774
0.744994
0.741972
0.738711
0.735215
0.731487
0.72753
0.723349
0.718947
0.714329
0.709499
0.704462
0.699223
0.693788
0.68816
0.682347
0.676353
0.670184
0.663847
0.657348
0.650693
0.643889
0.636942
0.629859
0.622648
0.615314
0.607867
0.600313
0.592658
0.584912
0.577082
0.569175
0.5612
0.553164
0.545074
0.536941
0.52877
0.520571
0.512351
0.504119
0.495884
0.487652
0.479432
0.471233
0.463063
0.454929
0.44684
0.438804
0.430828
0.422921
0.415091
0.407345
0.399691
0.392137
0.384689
0.377356
0.370145
0.363062
0.356115
0.349311
0.342656
0.336157
0.32982
0.323652
0.317658
0.311845
0.306217
0.300782
0.295543
0.290506
0.285677
0.281059
0.276657
0.272476
0.26852
0.264792
0.261295
0.258035
0.255013
0.252233
0.249697
0.247407
0.245367
0.243578
0.242041
0.240758
0.239731
0.23896
0.238446
0.23819
0.761819
0.761563
0.761049
0.760278
0.759251
0.757968
0.756431
0.754641
0.7526
0.750311
0.747775
0.744994
0.741972
0.738711
0.735215
0.731487
0.72753
0.723349
0.718947
0.714329
0.709499
0.704462
0.699224
0.693788
0.68816
0.682347
0.676353
0.670184
0.663847
0.657348
0.650693
0.643889
0.636942
0.629859
0.622648
0.615315
0.607867
0.600313
0.592659
0.584913
0.577082
0.569175
0.5612
0.553164
0.545074
0.536941
0.52877
0.520571
0.512351
0.504119
0.495884
0.487652
0.479432
0.471233
0.463063
0.454929
0.44684
0.438803
0.430828
0.422921
0.415091
0.407345
0.399691
0.392137
0.384689
0.377356
0.370145
0.363062
0.356115
0.349311
0.342656
0.336157
0.32982
0.323652
0.317658
0.311844
0.306217
0.300781
0.295543
0.290506
0.285677
0.281059
0.276657
0.272476
0.268519
0.264791
0.261295
0.258035
0.255013
0.252232
0.249696
0.247407
0.245367
0.243577
0.24204
0.240758
0.239731
0.23896
0.238446
0.23819
0.761819
0.761563
0.761049
0.760278
0.759251
0.757968
0.756431
0.754641
0.752601
0.750311
0.747775
0.744994
0.741972
0.738712
0.735215
0.731487
0.72753
0.723349
0.718947
0.714329
0.709499
0.704463
0.699224
0.693788
0.688161
0.682347
0.676353
0.670185
0.663848
0.657348
0.650693
0.643889
0.636942
0.629859
0.622648
0.615315
0.607867
0.600313
0.592659
0.584913
0.577082
0.569175
0.5612
0.553164
0.545074
0.536941
0.52877
0.520571
0.512351
0.504119
0.495884
0.487652
0.479432
0.471233
0.463063
0.454929
0.44684
0.438803
0.430828
0.422921
0.415091
0.407345
0.399691
0.392136
0.384689
0.377356
0.370145
0.363062
0.356115
0.349311
0.342656
0.336157
0.32982
0.323651
0.317658
0.311844
0.306217
0.300781
0.295542
0.290506
0.285676
0.281058
0.276657
0.272476
0.268519
0.264791
0.261295
0.258034
0.255012
0.252232
0.249696
0.247407
0.245366
0.243577
0.24204
0.240758
0.23973
0.23896
0.238446
0.23819
0.76182
0.761564
0.76105
0.760279
0.759251
0.757968
0.756431
0.754642
0.752601
0.750311
0.747775
0.744995
0.741973
0.738712
0.735216
0.731487
0.727531
0.723349
0.718947
0.714329
0.7095
0.704463
0.699224
0.693788
0.688161
0.682347
0.676353
0.670185
0.663848
0.657348
0.650693
0.643889
0.636942
0.629859
0.622648
0.615315
0.607867
0.600313
0.592659
0.584913
0.577082
0.569175
0.5612
0.553164
0.545074
0.536941
0.52877
0.520571
0.512351
0.504119
0.495884
0.487652
0.479432
0.471233
0.463063
0.454929
0.44684
0.438803
0.430828
0.422921
0.415091
0.407345
0.399691
0.392136
0.384689
0.377356
0.370144
0.363062
0.356115
0.349311
0.342656
0.336156
0.32982
0.323651
0.317657
0.311844
0.306217
0.300781
0.295542
0.290506
0.285676
0.281058
0.276657
0.272475
0.268519
0.264791
0.261295
0.258034
0.255012
0.252232
0.249696
0.247407
0.245366
0.243577
0.24204
0.240757
0.23973
0.238959
0.238446
0.23819
0.76182
0.761564
0.76105
0.760279
0.759251
0.757968
0.756431
0.754642
0.752601
0.750312
0.747775
0.744995
0.741973
0.738712
0.735216
0.731487
0.727531
0.723349
0.718948
0.714329
0.7095
0.704463
0.699224
0.693788
0.688161
0.682347
0.676353
0.670185
0.663848
0.657349
0.650693
0.643889
0.636942
0.629859
0.622648
0.615315
0.607867
0.600313
0.592659
0.584913
0.577082
0.569175
0.5612
0.553164
0.545074
0.536941
0.52877
0.520571
0.512351
0.504119
0.495884
0.487652
0.479432
0.471233
0.463062
0.454929
0.446839
0.438803
0.430828
0.422921
0.415091
0.407345
0.399691
0.392136
0.384689
0.377356
0.370144
0.363062
0.356115
0.34931
0.342655
0.336156
0.32982
0.323651
0.317657
0.311844
0.306217
0.300781
0.295542
0.290506
0.285676
0.281058
0.276656
0.272475
0.268519
0.264791
0.261295
0.258034
0.255012
0.252232
0.249696
0.247406
0.245366
0.243577
0.24204
0.240757
0.23973
0.238959
0.238446
0.23819
0.76182
0.761564
0.76105
0.760279
0.759251
0.757968
0.756431
0.754642
0.752601
0.750312
0.747775
0.744995
0.741973
0.738712
0.735216
0.731487
0.727531
0.723349
0.718948
0.71433
0.7095
0.704463
0.699224
0.693788
0.688161
0.682347
0.676353
0.670185
0.663848
0.657349
0.650693
0.643889
0.636942
0.629859
0.622648
0.615315
0.607867
0.600313
0.592659
0.584913
0.577082
0.569175
0.5612
0.553164
0.545074
0.53694
0.52877
0.520571
0.512351
0.504119
0.495884
0.487652
0.479432
0.471233
0.463062
0.454928
0.446839
0.438803
0.430828
0.422921
0.415091
0.407345
0.399691
0.392136
0.384689
0.377356
0.370144
0.363062
0.356115
0.34931
0.342655
0.336156
0.329819
0.323651
0.317657
0.311844
0.306216
0.300781
0.295542
0.290505
0.285676
0.281058
0.276656
0.272475
0.268519
0.264791
0.261295
0.258034
0.255012
0.252232
0.249696
0.247406
0.245366
0.243577
0.24204
0.240757
0.23973
0.238959
0.238446
0.238189
0.76182
0.761564
0.76105
0.760279
0.759251
0.757968
0.756431
0.754642
0.752601
0.750312
0.747775
0.744995
0.741973
0.738712
0.735216
0.731487
0.727531
0.723349
0.718948
0.71433
0.7095
0.704463
0.699224
0.693788
0.688161
0.682347
0.676353
0.670185
0.663848
0.657349
0.650693
0.643889
0.636942
0.629859
0.622648
0.615315
0.607867
0.600313
0.592659
0.584913
0.577082
0.569175
0.5612
0.553163
0.545074
0.53694
0.52877
0.520571
0.512351
0.504119
0.495884
0.487652
0.479432
0.471233
0.463062
0.454928
0.446839
0.438803
0.430828
0.422921
0.41509
0.407344
0.39969
0.392136
0.384689
0.377356
0.370144
0.363062
0.356115
0.34931
0.342655
0.336156
0.329819
0.323651
0.317657
0.311844
0.306216
0.300781
0.295542
0.290505
0.285676
0.281058
0.276656
0.272475
0.268519
0.264791
0.261295
0.258034
0.255012
0.252232
0.249696
0.247406
0.245366
0.243577
0.24204
0.240757
0.23973
0.238959
0.238446
0.23819
0.76182
0.761564
0.76105
0.760279
0.759251
0.757968
0.756431
0.754642
0.752601
0.750312
0.747775
0.744995
0.741973
0.738712
0.735216
0.731487
0.727531
0.723349
0.718948
0.714329
0.7095
0.704463
0.699224
0.693788
0.688161
0.682347
0.676353
0.670185
0.663848
0.657348
0.650693
0.643889
0.636942
0.629859
0.622648
0.615315
0.607867
0.600313
0.592659
0.584912
0.577082
0.569175
0.5612
0.553163
0.545074
0.53694
0.52877
0.520571
0.512351
0.504119
0.495884
0.487652
0.479432
0.471233
0.463062
0.454928
0.446839
0.438803
0.430828
0.422921
0.41509
0.407344
0.39969
0.392136
0.384689
0.377356
0.370144
0.363062
0.356115
0.34931
0.342655
0.336156
0.329819
0.323651
0.317657
0.311844
0.306216
0.300781
0.295542
0.290505
0.285676
0.281058
0.276656
0.272475
0.268519
0.264791
0.261295
0.258034
0.255012
0.252232
0.249696
0.247406
0.245366
0.243577
0.24204
0.240757
0.23973
0.238959
0.238446
0.23819
0.76182
0.761564
0.76105
0.760279
0.759251
0.757968
0.756431
0.754642
0.752601
0.750312
0.747775
0.744995
0.741973
0.738712
0.735216
0.731487
0.727531
0.723349
0.718947
0.714329
0.7095
0.704463
0.699224
0.693788
0.688161
0.682347
0.676353
0.670185
0.663848
0.657348
0.650693
0.643889
0.636942
0.629859
0.622648
0.615315
0.607867
0.600313
0.592658
0.584912
0.577082
0.569175
0.5612
0.553163
0.545074
0.53694
0.52877
0.520571
0.512351
0.504119
0.495883
0.487652
0.479432
0.471233
0.463062
0.454928
0.446839
0.438803
0.430828
0.422921
0.41509
0.407344
0.39969
0.392136
0.384689
0.377356
0.370144
0.363062
0.356115
0.34931
0.342655
0.336156
0.329819
0.323651
0.317657
0.311844
0.306217
0.300781
0.295542
0.290506
0.285676
0.281058
0.276656
0.272475
0.268519
0.264791
0.261295
0.258034
0.255012
0.252232
0.249696
0.247407
0.245366
0.243577
0.24204
0.240757
0.23973
0.238959
0.238446
0.23819
0.76182
0.761563
0.76105
0.760278
0.759251
0.757968
0.756431
0.754641
0.752601
0.750311
0.747775
0.744995
0.741972
0.738712
0.735215
0.731487
0.72753
0.723349
0.718947
0.714329
0.709499
0.704463
0.699224
0.693788
0.688161
0.682347
0.676353
0.670184
0.663847
0.657348
0.650693
0.643889
0.636942
0.629859
0.622648
0.615314
0.607867
0.600312
0.592658
0.584912
0.577082
0.569175
0.5612
0.553163
0.545074
0.53694
0.52877
0.52057
0.512351
0.504119
0.495883
0.487652
0.479432
0.471233
0.463062
0.454928
0.446839
0.438803
0.430828
0.422921
0.41509
0.407345
0.399691
0.392136
0.384689
0.377356
0.370144
0.363062
0.356115
0.34931
0.342656
0.336156
0.32982
0.323651
0.317657
0.311844
0.306217
0.300781
0.295542
0.290506
0.285676
0.281058
0.276657
0.272475
0.268519
0.264791
0.261295
0.258034
0.255012
0.252232
0.249696
0.247407
0.245366
0.243577
0.24204
0.240758
0.23973
0.23896
0.238446
0.23819
0.761819
0.761563
0.761049
0.760278
0.759251
0.757968
0.756431
0.754641
0.752601
0.750311
0.747775
0.744994
0.741972
0.738711
0.735215
0.731487
0.72753
0.723349
0.718947
0.714329
0.709499
0.704462
0.699224
0.693788
0.68816
0.682347
0.676353
0.670184
0.663847
0.657348
0.650693
0.643889
0.636942
0.629859
0.622647
0.615314
0.607867
0.600312
0.592658
0.584912
0.577082
0.569175
0.561199
0.553163
0.545074
0.53694
0.52877
0.52057
0.512351
0.504119
0.495883
0.487652
0.479432
0.471233
0.463062
0.454928
0.446839
0.438803
0.430828
0.422921
0.415091
0.407345
0.399691
0.392136
0.384689
0.377356
0.370144
0.363062
0.356115
0.349311
0.342656
0.336157
0.32982
0.323651
0.317658
0.311844
0.306217
0.300781
0.295543
0.290506
0.285676
0.281058
0.276657
0.272476
0.268519
0.264791
0.261295
0.258035
0.255013
0.252232
0.249696
0.247407
0.245367
0.243577
0.242041
0.240758
0.239731
0.23896
0.238446
0.23819
0.761819
0.761563
0.761049
0.760278
0.75925
0.757968
0.756431
0.754641
0.7526
0.750311
0.747775
0.744994
0.741972
0.738711
0.735215
0.731487
0.72753
0.723349
0.718947
0.714329
0.709499
0.704462
0.699223
0.693787
0.68816
0.682346
0.676353
0.670184
0.663847
0.657348
0.650693
0.643888
0.636941
0.629859
0.622647
0.615314
0.607867
0.600312
0.592658
0.584912
0.577082
0.569175
0.561199
0.553163
0.545074
0.53694
0.528769
0.52057
0.512351
0.504119
0.495883
0.487651
0.479432
0.471233
0.463062
0.454928
0.446839
0.438803
0.430828
0.422921
0.415091
0.407345
0.399691
0.392136
0.384689
0.377356
0.370144
0.363062
0.356115
0.349311
0.342656
0.336157
0.32982
0.323652
0.317658
0.311844
0.306217
0.300781
0.295543
0.290506
0.285677
0.281059
0.276657
0.272476
0.268519
0.264791
0.261295
0.258035
0.255013
0.252233
0.249697
0.247407
0.245367
0.243578
0.242041
0.240758
0.239731
0.23896
0.238447
0.238191
0.761819
0.761563
0.761049
0.760278
0.75925
0.757967
0.75643
0.754641
0.7526
0.75031
0.747774
0.744994
0.741971
0.738711
0.735215
0.731486
0.72753
0.723348
0.718946
0.714328
0.709499
0.704462
0.699223
0.693787
0.68816
0.682346
0.676352
0.670184
0.663847
0.657348
0.650692
0.643888
0.636941
0.629858
0.622647
0.615314
0.607866
0.600312
0.592658
0.584912
0.577082
0.569175
0.561199
0.553163
0.545074
0.53694
0.528769
0.52057
0.512351
0.504119
0.495883
0.487651
0.479432
0.471233
0.463062
0.454928
0.446839
0.438803
0.430828
0.422921
0.415091
0.407345
0.399691
0.392136
0.384689
0.377356
0.370145
0.363062
0.356115
0.349311
0.342656
0.336157
0.32982
0.323652
0.317658
0.311845
0.306217
0.300782
0.295543
0.290506
0.285677
0.281059
0.276657
0.272476
0.26852
0.264792
0.261296
0.258035
0.255013
0.252233
0.249697
0.247408
0.245367
0.243578
0.242041
0.240759
0.239731
0.238961
0.238447
0.238191
0.761818
0.761562
0.761048
0.760277
0.75925
0.757967
0.75643
0.75464
0.7526
0.75031
0.747774
0.744993
0.741971
0.73871
0.735214
0.731486
0.727529
0.723348
0.718946
0.714328
0.709498
0.704461
0.699223
0.693787
0.688159
0.682346
0.676352
0.670183
0.663846
0.657347
0.650692
0.643888
0.636941
0.629858
0.622647
0.615314
0.607866
0.600312
0.592658
0.584912
0.577081
0.569175
0.561199
0.553163
0.545074
0.53694
0.528769
0.52057
0.512351
0.504119
0.495883
0.487651
0.479432
0.471233
0.463062
0.454928
0.446839
0.438803
0.430828
0.422921
0.415091
0.407345
0.399691
0.392137
0.384689
0.377356
0.370145
0.363062
0.356115
0.349311
0.342656
0.336157
0.32982
0.323652
0.317658
0.311845
0.306218
0.300782
0.295543
0.290507
0.285677
0.281059
0.276658
0.272477
0.26852
0.264792
0.261296
0.258036
0.255014
0.252234
0.249697
0.247408
0.245368
0.243578
0.242042
0.240759
0.239732
0.238961
0.238447
0.238191
0.761818
0.761562
0.761048
0.760277
0.759249
0.757966
0.756429
0.75464
0.752599
0.750309
0.747773
0.744993
0.741971
0.73871
0.735214
0.731485
0.727529
0.723347
0.718946
0.714327
0.709498
0.704461
0.699222
0.693786
0.688159
0.682345
0.676351
0.670183
0.663846
0.657347
0.650692
0.643887
0.636941
0.629858
0.622646
0.615313
0.607866
0.600311
0.592657
0.584911
0.577081
0.569174
0.561199
0.553163
0.545074
0.53694
0.528769
0.52057
0.512351
0.504119
0.495883
0.487651
0.479432
0.471233
0.463062
0.454928
0.446839
0.438803
0.430828
0.422921
0.415091
0.407345
0.399691
0.392137
0.384689
0.377356
0.370145
0.363062
0.356116
0.349311
0.342657
0.336158
0.329821
0.323652
0.317659
0.311845
0.306218
0.300782
0.295544
0.290507
0.285678
0.28106
0.276658
0.272477
0.268521
0.264793
0.261297
0.258036
0.255014
0.252234
0.249698
0.247409
0.245368
0.243579
0.242042
0.24076
0.239732
0.238962
0.238448
0.238192
0.761817
0.761561
0.761047
0.760276
0.759249
0.757966
0.756429
0.754639
0.752598
0.750309
0.747773
0.744992
0.74197
0.738709
0.735213
0.731485
0.727528
0.723347
0.718945
0.714327
0.709497
0.70446
0.699222
0.693786
0.688158
0.682345
0.676351
0.670183
0.663846
0.657346
0.650691
0.643887
0.63694
0.629857
0.622646
0.615313
0.607866
0.600311
0.592657
0.584911
0.577081
0.569174
0.561199
0.553162
0.545073
0.53694
0.528769
0.52057
0.51235
0.504119
0.495883
0.487651
0.479432
0.471233
0.463062
0.454929
0.44684
0.438803
0.430828
0.422921
0.415091
0.407345
0.399691
0.392137
0.38469
0.377357
0.370145
0.363063
0.356116
0.349312
0.342657
0.336158
0.329821
0.323653
0.317659
0.311846
0.306218
0.300783
0.295544
0.290508
0.285678
0.28106
0.276659
0.272478
0.268521
0.264793
0.261297
0.258037
0.255015
0.252235
0.249699
0.247409
0.245369
0.24358
0.242043
0.24076
0.239733
0.238962
0.238449
0.238193