/*--------------------------------*- C++ -*----------------------------------*\
  =========                 |
  \\      /  F ield         | OpenFOAM: The Open Source CFD Toolbox
   \\    /   O peration     | Website:  https://openfoam.org
    \\  /    A nd           | Version:  6
     \\/     M anipulation  |
\*---------------------------------------------------------------------------*/
FoamFile
{
    version     2.0;
    format      ascii;
    class       volScalarField;
    location    "1";
    object      T;
}
// * * * * * * * * * * * * * * * * * * * * * * * * * * * * * * * * * * * * * //

dimensions      [0 0 0 1 0 0 0];

internalField   nonuniform List<scalar> 
5000
(
0.999573
0.999545
0.999488
0.9994
0.999275
0.999109
0.998895
0.998623
0.998284
0.997863
0.997347
0.996717
0.995952
0.99503
0.993924
0.992603
0.991034
0.98918
0.986999
0.984448
0.981477
0.978035
0.974067
0.969515
0.964318
0.958415
0.951743
0.944239
0.935841
0.92649
0.916128
0.904704
0.89217
0.878489
0.863629
0.847569
0.830298
0.811818
0.792143
0.771301
0.749331
0.726289
0.702244
0.677276
0.651481
0.624964
0.597842
0.570239
0.542287
0.514124
0.485896
0.457733
0.429781
0.402177
0.375053
0.348535
0.322738
0.297769
0.273722
0.250678
0.228706
0.207862
0.188185
0.169703
0.152431
0.136369
0.121507
0.107824
0.0952901
0.0838647
0.073502
0.0641499
0.0557517
0.0482475
0.0415754
0.0356725
0.030476
0.0259239
0.0219562
0.0185147
0.0155446
0.0129938
0.0108139
0.00896038
0.00739204
0.00607168
0.00496568
0.00404401
0.00328
0.0026502
0.00213412
0.00171405
0.00137481
0.00110353
0.000889451
0.000723745
0.000599313
0.000510664
0.000453779
0.000426015
0.999573
0.999546
0.999489
0.9994
0.999275
0.99911
0.998895
0.998624
0.998284
0.997864
0.997348
0.996718
0.995953
0.995031
0.993925
0.992605
0.991036
0.989182
0.987002
0.984451
0.981481
0.978039
0.974071
0.969519
0.964323
0.958421
0.951749
0.944245
0.935848
0.926497
0.916135
0.904711
0.892178
0.878497
0.863636
0.847576
0.830305
0.811825
0.79215
0.771307
0.749337
0.726295
0.702249
0.677281
0.651485
0.624967
0.597844
0.57024
0.542287
0.514123
0.485895
0.457731
0.429778
0.402173
0.375049
0.34853
0.322732
0.297763
0.273715
0.250671
0.228699
0.207854
0.188177
0.169696
0.152423
0.136361
0.1215
0.107818
0.0952835
0.0838585
0.0734961
0.0641444
0.0557465
0.0482427
0.041571
0.0356685
0.0304724
0.0259207
0.0219533
0.0185122
0.0155423
0.0129918
0.0108122
0.00895887
0.00739074
0.00607056
0.00496472
0.0040432
0.00327931
0.00264962
0.00213363
0.00171364
0.00137446
0.00110324
0.000889205
0.000723533
0.000599129
0.000510503
0.000453647
0.000425948
0.999573
0.999546
0.999489
0.9994
0.999276
0.99911
0.998896
0.998624
0.998285
0.997865
0.997349
0.996719
0.995954
0.995033
0.993927
0.992606
0.991038
0.989184
0.987004
0.984454
0.981484
0.978042
0.974075
0.969523
0.964327
0.958425
0.951754
0.94425
0.935853
0.926502
0.916141
0.904717
0.892184
0.878503
0.863643
0.847583
0.830312
0.811832
0.792156
0.771313
0.749342
0.7263
0.702253
0.677284
0.651488
0.62497
0.597846
0.570241
0.542287
0.514123
0.485894
0.457729
0.429775
0.40217
0.375045
0.348525
0.322727
0.297757
0.273709
0.250665
0.228693
0.207848
0.188171
0.169689
0.152417
0.136355
0.121494
0.107812
0.0952778
0.0838531
0.0734911
0.0641396
0.0557421
0.0482387
0.0415673
0.0356651
0.0304693
0.0259179
0.0219508
0.01851
0.0155403
0.0129901
0.0108107
0.00895757
0.00738962
0.0060696
0.0049639
0.0040425
0.00327872
0.00264912
0.00213322
0.00171329
0.00137417
0.00110299
0.000888996
0.000723355
0.000598977
0.000510373
0.000453539
0.000425861
0.999574
0.999546
0.999489
0.9994
0.999276
0.99911
0.998896
0.998625
0.998285
0.997865
0.997349
0.996719
0.995955
0.995034
0.993928
0.992608
0.991039
0.989186
0.987006
0.984456
0.981486
0.978045
0.974078
0.969527
0.964331
0.958429
0.951758
0.944255
0.935858
0.926508
0.916147
0.904723
0.89219
0.878509
0.863649
0.847589
0.830318
0.811838
0.792162
0.771318
0.749347
0.726304
0.702257
0.677288
0.651491
0.624972
0.597847
0.570242
0.542288
0.514122
0.485893
0.457727
0.429773
0.402166
0.375041
0.348521
0.322723
0.297752
0.273704
0.250659
0.228687
0.207842
0.188165
0.169683
0.152411
0.136349
0.121488
0.107806
0.0952725
0.0838481
0.0734863
0.0641352
0.055738
0.0482349
0.0415638
0.0356619
0.0304664
0.0259154
0.0219485
0.0185079
0.0155385
0.0129885
0.0108093
0.00895636
0.00738857
0.0060687
0.00496314
0.00404185
0.00327817
0.00264866
0.00213283
0.00171296
0.0013739
0.00110276
0.000888803
0.000723192
0.000598838
0.000510254
0.000453435
0.000425768
0.999574
0.999546
0.999489
0.999401
0.999276
0.99911
0.998896
0.998625
0.998286
0.997866
0.99735
0.99672
0.995956
0.995035
0.993929
0.992609
0.991041
0.989188
0.987008
0.984458
0.981489
0.978048
0.974081
0.96953
0.964335
0.958433
0.951763
0.94426
0.935863
0.926513
0.916152
0.904728
0.892196
0.878515
0.863655
0.847594
0.830323
0.811843
0.792167
0.771323
0.749352
0.726309
0.702261
0.677291
0.651494
0.624974
0.597849
0.570243
0.542288
0.514122
0.485892
0.457725
0.42977
0.402164
0.375037
0.348517
0.322718
0.297747
0.273699
0.250654
0.228681
0.207836
0.188159
0.169677
0.152405
0.136344
0.121483
0.107801
0.0952676
0.0838434
0.0734819
0.0641311
0.0557342
0.0482313
0.0415605
0.035659
0.0304637
0.0259129
0.0219463
0.018506
0.0155368
0.012987
0.010808
0.00895523
0.0073876
0.00606786
0.00496243
0.00404124
0.00327766
0.00264823
0.00213246
0.00171266
0.00137364
0.00110255
0.000888625
0.000723041
0.000598709
0.000510143
0.000453337
0.000425677
0.999574
0.999546
0.999489
0.999401
0.999276
0.999111
0.998897
0.998625
0.998286
0.997866
0.99735
0.996721
0.995957
0.995036
0.99393
0.99261
0.991042
0.989189
0.98701
0.98446
0.981491
0.978051
0.974084
0.969533
0.964338
0.958437
0.951766
0.944264
0.935868
0.926517
0.916157
0.904733
0.892201
0.87852
0.86366
0.8476
0.830329
0.811848
0.792172
0.771328
0.749356
0.726312
0.702265
0.677294
0.651496
0.624976
0.59785
0.570244
0.542288
0.514122
0.485891
0.457724
0.429768
0.402161
0.375034
0.348513
0.322714
0.297743
0.273694
0.250649
0.228676
0.207831
0.188154
0.169672
0.1524
0.136339
0.121478
0.107796
0.095263
0.083839
0.0734778
0.0641273
0.0557306
0.048228
0.0415575
0.0356562
0.0304613
0.0259107
0.0219443
0.0185042
0.0155353
0.0129856
0.0108068
0.00895419
0.0073867
0.00606709
0.00496176
0.00404068
0.00327719
0.00264783
0.00213213
0.00171238
0.00137341
0.00110235
0.00088846
0.000722902
0.000598591
0.00051004
0.000453245
0.00042559
0.999574
0.999546
0.99949
0.999401
0.999277
0.999111
0.998897
0.998626
0.998287
0.997867
0.997351
0.996721
0.995958
0.995037
0.993931
0.992611
0.991044
0.989191
0.987012
0.984462
0.981493
0.978053
0.974087
0.969536
0.964341
0.95844
0.95177
0.944268
0.935872
0.926522
0.916161
0.904738
0.892205
0.878525
0.863665
0.847605
0.830333
0.811853
0.792177
0.771332
0.74936
0.726316
0.702268
0.677297
0.651499
0.624978
0.597852
0.570244
0.542288
0.514121
0.48589
0.457722
0.429766
0.402158
0.375031
0.34851
0.322711
0.297739
0.27369
0.250644
0.228672
0.207826
0.188149
0.169667
0.152395
0.136334
0.121473
0.107792
0.0952588
0.083835
0.0734741
0.0641237
0.0557273
0.048225
0.0415548
0.0356537
0.030459
0.0259086
0.0219425
0.0185026
0.0155338
0.0129843
0.0108057
0.00895323
0.00738587
0.00606638
0.00496115
0.00404016
0.00327675
0.00264746
0.00213182
0.00171212
0.00137319
0.00110217
0.000888309
0.000722775
0.000598481
0.000509944
0.000453158
0.000425508
0.999574
0.999547
0.99949
0.999401
0.999277
0.999111
0.998897
0.998626
0.998287
0.997867
0.997352
0.996722
0.995959
0.995037
0.993932
0.992612
0.991045
0.989192
0.987014
0.984464
0.981495
0.978055
0.974089
0.969539
0.964344
0.958443
0.951773
0.944271
0.935875
0.926526
0.916165
0.904742
0.89221
0.878529
0.863669
0.847609
0.830338
0.811857
0.792181
0.771336
0.749364
0.726319
0.702271
0.6773
0.651501
0.62498
0.597853
0.570245
0.542289
0.514121
0.485889
0.457721
0.429764
0.402156
0.375029
0.348507
0.322707
0.297735
0.273686
0.25064
0.228667
0.207822
0.188144
0.169663
0.152391
0.13633
0.121469
0.107788
0.095255
0.0838314
0.0734706
0.0641205
0.0557243
0.0482222
0.0415522
0.0356514
0.0304569
0.0259067
0.0219408
0.0185011
0.0155325
0.0129832
0.0108047
0.00895234
0.0073851
0.00606572
0.00496059
0.00403969
0.00327635
0.00264712
0.00213153
0.00171188
0.00137299
0.001102
0.00088817
0.000722657
0.000598381
0.000509856
0.000453079
0.000425433
0.999574
0.999547
0.99949
0.999401
0.999277
0.999111
0.998897
0.998626
0.998287
0.997868
0.997352
0.996723
0.995959
0.995038
0.993933
0.992613
0.991046
0.989194
0.987015
0.984466
0.981497
0.978057
0.974091
0.969541
0.964347
0.958446
0.951776
0.944275
0.935879
0.926529
0.916169
0.904746
0.892214
0.878533
0.863673
0.847613
0.830342
0.811861
0.792184
0.77134
0.749367
0.726323
0.702274
0.677302
0.651503
0.624981
0.597854
0.570246
0.542289
0.514121
0.485888
0.45772
0.429763
0.402154
0.375026
0.348504
0.322704
0.297732
0.273682
0.250636
0.228663
0.207818
0.18814
0.169659
0.152387
0.136326
0.121465
0.107784
0.0952514
0.083828
0.0734674
0.0641175
0.0557216
0.0482197
0.0415499
0.0356492
0.0304549
0.025905
0.0219392
0.0184997
0.0155313
0.0129821
0.0108038
0.00895153
0.0073844
0.00606512
0.00496008
0.00403925
0.00327598
0.00264681
0.00213127
0.00171167
0.00137281
0.00110185
0.000888043
0.00072255
0.000598289
0.000509775
0.000453005
0.000425363
0.999574
0.999547
0.99949
0.999401
0.999277
0.999112
0.998898
0.998627
0.998288
0.997868
0.997352
0.996723
0.99596
0.995039
0.993934
0.992614
0.991047
0.989195
0.987016
0.984467
0.981499
0.978059
0.974093
0.969543
0.964349
0.958449
0.951779
0.944278
0.935882
0.926533
0.916172
0.90475
0.892217
0.878537
0.863677
0.847617
0.830345
0.811865
0.792188
0.771343
0.74937
0.726325
0.702276
0.677304
0.651505
0.624983
0.597855
0.570246
0.542289
0.51412
0.485887
0.457719
0.429761
0.402152
0.375024
0.348501
0.322701
0.297729
0.273679
0.250633
0.22866
0.207814
0.188137
0.169655
0.152383
0.136322
0.121462
0.107781
0.0952482
0.0838249
0.0734645
0.0641148
0.055719
0.0482173
0.0415477
0.0356473
0.0304532
0.0259034
0.0219378
0.0184984
0.0155302
0.0129811
0.0108029
0.00895079
0.00738377
0.00606457
0.00495961
0.00403885
0.00327564
0.00264653
0.00213104
0.00171147
0.00137265
0.00110172
0.000887927
0.000722452
0.000598205
0.000509702
0.000452938
0.000425299
0.999575
0.999547
0.99949
0.999402
0.999277
0.999112
0.998898
0.998627
0.998288
0.997868
0.997353
0.996724
0.99596
0.995039
0.993934
0.992615
0.991048
0.989196
0.987018
0.984468
0.9815
0.978061
0.974095
0.969545
0.964351
0.958451
0.951782
0.94428
0.935885
0.926535
0.916176
0.904753
0.892221
0.87854
0.863681
0.84762
0.830349
0.811868
0.792191
0.771346
0.749373
0.726328
0.702278
0.677306
0.651506
0.624984
0.597856
0.570247
0.542289
0.51412
0.485887
0.457718
0.42976
0.40215
0.375022
0.348499
0.322699
0.297726
0.273676
0.25063
0.228656
0.207811
0.188133
0.169652
0.15238
0.136319
0.121458
0.107778
0.0952452
0.0838221
0.0734619
0.0641123
0.0557168
0.0482152
0.0415458
0.0356455
0.0304516
0.025902
0.0219365
0.0184973
0.0155292
0.0129802
0.0108021
0.00895012
0.00738319
0.00606408
0.00495919
0.00403849
0.00327534
0.00264627
0.00213082
0.00171129
0.0013725
0.00110159
0.000887823
0.000722364
0.000598129
0.000509635
0.000452877
0.000425241
0.999575
0.999547
0.99949
0.999402
0.999277
0.999112
0.998898
0.998627
0.998288
0.997869
0.997353
0.996724
0.995961
0.99504
0.993935
0.992616
0.991049
0.989197
0.987019
0.98447
0.981501
0.978062
0.974097
0.969547
0.964353
0.958453
0.951784
0.944283
0.935887
0.926538
0.916178
0.904756
0.892224
0.878543
0.863684
0.847623
0.830352
0.811871
0.792194
0.771349
0.749376
0.72633
0.70228
0.677308
0.651508
0.624985
0.597857
0.570247
0.542289
0.51412
0.485886
0.457717
0.429758
0.402149
0.37502
0.348497
0.322696
0.297723
0.273673
0.250627
0.228654
0.207808
0.18813
0.169649
0.152377
0.136316
0.121456
0.107775
0.0952426
0.0838196
0.0734595
0.0641101
0.0557147
0.0482133
0.0415441
0.035644
0.0304501
0.0259007
0.0219354
0.0184963
0.0155282
0.0129794
0.0108014
0.00894952
0.00738267
0.00606363
0.00495881
0.00403817
0.00327506
0.00264604
0.00213063
0.00171113
0.00137236
0.00110148
0.000887729
0.000722284
0.00059806
0.000509574
0.000452822
0.000425188
0.999575
0.999547
0.99949
0.999402
0.999278
0.999112
0.998898
0.998627
0.998288
0.997869
0.997353
0.996724
0.995961
0.99504
0.993936
0.992616
0.99105
0.989198
0.98702
0.984471
0.981503
0.978064
0.974098
0.969549
0.964355
0.958455
0.951786
0.944285
0.93589
0.926541
0.916181
0.904758
0.892226
0.878546
0.863686
0.847626
0.830355
0.811873
0.792196
0.771351
0.749378
0.726332
0.702282
0.67731
0.651509
0.624986
0.597857
0.570248
0.542289
0.51412
0.485886
0.457716
0.429757
0.402147
0.375018
0.348495
0.322694
0.297721
0.273671
0.250624
0.228651
0.207805
0.188128
0.169646
0.152374
0.136313
0.121453
0.107772
0.0952402
0.0838174
0.0734574
0.0641081
0.0557129
0.0482116
0.0415425
0.0356425
0.0304489
0.0258995
0.0219344
0.0184953
0.0155274
0.0129787
0.0108008
0.00894898
0.0073822
0.00606323
0.00495847
0.00403788
0.00327482
0.00264583
0.00213046
0.00171098
0.00137224
0.00110138
0.000887644
0.000722212
0.000597999
0.00050952
0.000452773
0.000425142
0.999575
0.999547
0.99949
0.999402
0.999278
0.999112
0.998898
0.998627
0.998289
0.997869
0.997354
0.996725
0.995962
0.995041
0.993936
0.992617
0.99105
0.989198
0.98702
0.984472
0.981504
0.978065
0.9741
0.96955
0.964357
0.958457
0.951788
0.944287
0.935892
0.926543
0.916183
0.904761
0.892229
0.878549
0.863689
0.847628
0.830357
0.811876
0.792199
0.771353
0.74938
0.726334
0.702284
0.677311
0.65151
0.624987
0.597858
0.570248
0.54229
0.51412
0.485885
0.457715
0.429756
0.402146
0.375017
0.348493
0.322692
0.297719
0.273668
0.250622
0.228649
0.207803
0.188125
0.169643
0.152372
0.136311
0.121451
0.10777
0.0952381
0.0838154
0.0734555
0.0641064
0.0557112
0.0482101
0.0415411
0.0356413
0.0304477
0.0258985
0.0219334
0.0184945
0.0155267
0.0129781
0.0108003
0.00894849
0.00738179
0.00606287
0.00495816
0.00403762
0.0032746
0.00264565
0.0021303
0.00171085
0.00137213
0.00110129
0.000887569
0.000722149
0.000597945
0.000509472
0.000452729
0.0004251
0.999575
0.999547
0.99949
0.999402
0.999278
0.999112
0.998899
0.998628
0.998289
0.997869
0.997354
0.996725
0.995962
0.995041
0.993937
0.992618
0.991051
0.989199
0.987021
0.984473
0.981505
0.978066
0.974101
0.969552
0.964358
0.958458
0.95179
0.944289
0.935894
0.926545
0.916185
0.904763
0.892231
0.878551
0.863691
0.847631
0.830359
0.811878
0.792201
0.771355
0.749382
0.726336
0.702285
0.677312
0.651511
0.624988
0.597859
0.570248
0.54229
0.514119
0.485885
0.457714
0.429755
0.402145
0.375016
0.348492
0.322691
0.297717
0.273667
0.25062
0.228646
0.2078
0.188123
0.169641
0.152369
0.136309
0.121449
0.107768
0.0952362
0.0838136
0.0734538
0.0641048
0.0557098
0.0482088
0.0415399
0.0356401
0.0304467
0.0258976
0.0219326
0.0184938
0.0155261
0.0129775
0.0107998
0.00894807
0.00738142
0.00606256
0.00495789
0.00403739
0.00327441
0.00264549
0.00213017
0.00171074
0.00137204
0.00110121
0.000887503
0.000722093
0.000597896
0.00050943
0.00045269
0.000425063
0.999575
0.999547
0.999491
0.999402
0.999278
0.999112
0.998899
0.998628
0.998289
0.99787
0.997354
0.996725
0.995962
0.995042
0.993937
0.992618
0.991051
0.9892
0.987022
0.984473
0.981506
0.978067
0.974102
0.969553
0.964359
0.95846
0.951791
0.94429
0.935895
0.926546
0.916187
0.904764
0.892233
0.878553
0.863693
0.847632
0.830361
0.81188
0.792202
0.771357
0.749383
0.726337
0.702287
0.677314
0.651512
0.624989
0.597859
0.570249
0.54229
0.514119
0.485884
0.457714
0.429755
0.402144
0.375014
0.348491
0.322689
0.297716
0.273665
0.250618
0.228645
0.207799
0.188121
0.169639
0.152368
0.136307
0.121447
0.107766
0.0952346
0.083812
0.0734524
0.0641034
0.0557085
0.0482076
0.0415388
0.0356392
0.0304458
0.0258968
0.0219319
0.0184932
0.0155255
0.012977
0.0107993
0.0089477
0.0073811
0.00606228
0.00495766
0.00403719
0.00327424
0.00264535
0.00213005
0.00171064
0.00137196
0.00110114
0.000887445
0.000722044
0.000597855
0.000509393
0.000452657
0.000425031
0.999575
0.999547
0.999491
0.999402
0.999278
0.999112
0.998899
0.998628
0.998289
0.99787
0.997354
0.996725
0.995962
0.995042
0.993937
0.992618
0.991052
0.9892
0.987022
0.984474
0.981506
0.978068
0.974103
0.969554
0.96436
0.958461
0.951792
0.944291
0.935897
0.926548
0.916188
0.904766
0.892234
0.878554
0.863695
0.847634
0.830363
0.811881
0.792204
0.771358
0.749385
0.726338
0.702288
0.677315
0.651513
0.624989
0.59786
0.570249
0.54229
0.514119
0.485884
0.457713
0.429754
0.402143
0.375013
0.348489
0.322688
0.297714
0.273663
0.250617
0.228643
0.207797
0.188119
0.169638
0.152366
0.136305
0.121445
0.107765
0.0952332
0.0838107
0.0734511
0.0641022
0.0557074
0.0482066
0.0415379
0.0356383
0.030445
0.0258961
0.0219313
0.0184926
0.015525
0.0129766
0.010799
0.00894738
0.00738082
0.00606204
0.00495746
0.00403702
0.00327409
0.00264522
0.00212995
0.00171056
0.00137189
0.00110108
0.000887396
0.000722002
0.000597818
0.000509361
0.000452628
0.000425003
0.999575
0.999547
0.999491
0.999402
0.999278
0.999113
0.998899
0.998628
0.998289
0.99787
0.997355
0.996726
0.995963
0.995042
0.993938
0.992619
0.991052
0.989201
0.987023
0.984475
0.981507
0.978068
0.974104
0.969555
0.964361
0.958462
0.951793
0.944293
0.935898
0.926549
0.91619
0.904767
0.892236
0.878556
0.863696
0.847636
0.830364
0.811883
0.792205
0.771359
0.749386
0.726339
0.702289
0.677315
0.651514
0.62499
0.59786
0.570249
0.54229
0.514119
0.485884
0.457713
0.429753
0.402142
0.375012
0.348488
0.322687
0.297713
0.273662
0.250615
0.228642
0.207796
0.188118
0.169636
0.152365
0.136304
0.121444
0.107764
0.0952319
0.0838095
0.07345
0.0641012
0.0557064
0.0482057
0.0415371
0.0356376
0.0304444
0.0258955
0.0219308
0.0184922
0.0155246
0.0129762
0.0107987
0.0089471
0.00738058
0.00606184
0.00495728
0.00403688
0.00327397
0.00264512
0.00212986
0.00171049
0.00137183
0.00110103
0.000887354
0.000721967
0.000597788
0.000509334
0.000452603
0.00042498
0.999575
0.999547
0.999491
0.999402
0.999278
0.999113
0.998899
0.998628
0.998289
0.99787
0.997355
0.996726
0.995963
0.995042
0.993938
0.992619
0.991053
0.989201
0.987023
0.984475
0.981508
0.978069
0.974104
0.969555
0.964362
0.958463
0.951794
0.944294
0.935899
0.92655
0.916191
0.904769
0.892237
0.878557
0.863697
0.847637
0.830365
0.811884
0.792206
0.77136
0.749387
0.72634
0.702289
0.677316
0.651514
0.62499
0.59786
0.570249
0.54229
0.514119
0.485884
0.457713
0.429753
0.402142
0.375012
0.348488
0.322686
0.297712
0.273661
0.250614
0.22864
0.207794
0.188117
0.169635
0.152363
0.136303
0.121443
0.107763
0.0952309
0.0838085
0.0734491
0.0641004
0.0557056
0.048205
0.0415364
0.035637
0.0304438
0.025895
0.0219303
0.0184918
0.0155243
0.0129759
0.0107984
0.00894687
0.00738039
0.00606167
0.00495714
0.00403675
0.00327387
0.00264503
0.00212979
0.00171043
0.00137178
0.00110099
0.000887319
0.000721938
0.000597763
0.000509312
0.000452583
0.000424961
0.999575
0.999547
0.999491
0.999402
0.999278
0.999113
0.998899
0.998628
0.998289
0.99787
0.997355
0.996726
0.995963
0.995043
0.993938
0.992619
0.991053
0.989201
0.987024
0.984475
0.981508
0.978069
0.974105
0.969556
0.964363
0.958463
0.951795
0.944294
0.9359
0.926551
0.916192
0.90477
0.892238
0.878558
0.863698
0.847638
0.830366
0.811885
0.792207
0.771361
0.749388
0.726341
0.70229
0.677317
0.651515
0.624991
0.597861
0.57025
0.54229
0.514119
0.485883
0.457712
0.429752
0.402141
0.375011
0.348487
0.322685
0.297711
0.27366
0.250613
0.228639
0.207793
0.188116
0.169634
0.152362
0.136302
0.121442
0.107762
0.0952301
0.0838077
0.0734483
0.0640997
0.055705
0.0482044
0.0415358
0.0356365
0.0304434
0.0258946
0.02193
0.0184914
0.015524
0.0129757
0.0107982
0.00894669
0.00738023
0.00606154
0.00495702
0.00403666
0.00327379
0.00264497
0.00212973
0.00171038
0.00137174
0.00110096
0.000887291
0.000721914
0.000597743
0.000509295
0.000452567
0.000424946
0.999575
0.999547
0.999491
0.999402
0.999278
0.999113
0.998899
0.998628
0.99829
0.99787
0.997355
0.996726
0.995963
0.995043
0.993938
0.99262
0.991053
0.989202
0.987024
0.984476
0.981508
0.97807
0.974105
0.969556
0.964363
0.958464
0.951796
0.944295
0.9359
0.926552
0.916193
0.90477
0.892239
0.878559
0.863699
0.847639
0.830367
0.811885
0.792208
0.771362
0.749388
0.726342
0.702291
0.677317
0.651515
0.624991
0.597861
0.57025
0.54229
0.514119
0.485883
0.457712
0.429752
0.402141
0.375011
0.348486
0.322684
0.29771
0.273659
0.250613
0.228639
0.207793
0.188115
0.169633
0.152362
0.136301
0.121441
0.107761
0.0952294
0.0838071
0.0734477
0.0640991
0.0557045
0.0482039
0.0415354
0.0356361
0.030443
0.0258943
0.0219297
0.0184912
0.0155238
0.0129755
0.010798
0.00894655
0.00738011
0.00606143
0.00495694
0.00403658
0.00327372
0.00264491
0.00212969
0.00171034
0.00137171
0.00110093
0.00088727
0.000721897
0.000597728
0.000509282
0.000452555
0.000424934
0.999575
0.999547
0.999491
0.999402
0.999278
0.999113
0.998899
0.998628
0.99829
0.99787
0.997355
0.996726
0.995963
0.995043
0.993938
0.99262
0.991053
0.989202
0.987024
0.984476
0.981509
0.97807
0.974106
0.969557
0.964364
0.958465
0.951796
0.944296
0.935901
0.926552
0.916193
0.904771
0.892239
0.878559
0.8637
0.847639
0.830368
0.811886
0.792209
0.771363
0.749389
0.726342
0.702291
0.677317
0.651515
0.624991
0.597861
0.57025
0.54229
0.514118
0.485883
0.457712
0.429752
0.40214
0.37501
0.348486
0.322684
0.29771
0.273659
0.250612
0.228638
0.207792
0.188114
0.169633
0.152361
0.1363
0.121441
0.10776
0.0952289
0.0838066
0.0734473
0.0640987
0.0557041
0.0482035
0.0415351
0.0356358
0.0304428
0.0258941
0.0219295
0.018491
0.0155236
0.0129754
0.0107979
0.00894644
0.00738002
0.00606136
0.00495687
0.00403653
0.00327368
0.00264488
0.00212966
0.00171032
0.00137169
0.00110091
0.000887256
0.000721885
0.000597718
0.000509273
0.000452547
0.000424927
0.999575
0.999548
0.999491
0.999402
0.999278
0.999113
0.998899
0.998628
0.99829
0.99787
0.997355
0.996726
0.995963
0.995043
0.993939
0.99262
0.991053
0.989202
0.987025
0.984476
0.981509
0.97807
0.974106
0.969557
0.964364
0.958465
0.951796
0.944296
0.935901
0.926553
0.916194
0.904771
0.89224
0.87856
0.8637
0.84764
0.830368
0.811886
0.792209
0.771363
0.749389
0.726342
0.702291
0.677318
0.651516
0.624991
0.597861
0.57025
0.54229
0.514118
0.485883
0.457711
0.429751
0.40214
0.37501
0.348485
0.322683
0.29771
0.273658
0.250612
0.228638
0.207791
0.188114
0.169632
0.152361
0.1363
0.12144
0.10776
0.0952285
0.0838063
0.073447
0.0640984
0.0557038
0.0482033
0.0415349
0.0356356
0.0304426
0.0258939
0.0219293
0.0184909
0.0155235
0.0129753
0.0107978
0.00894638
0.00737997
0.00606131
0.00495683
0.0040365
0.00327365
0.00264485
0.00212964
0.0017103
0.00137167
0.0011009
0.000887249
0.000721879
0.000597713
0.000509268
0.000452543
0.000424923
0.999575
0.999548
0.999491
0.999402
0.999278
0.999113
0.998899
0.998628
0.99829
0.99787
0.997355
0.996726
0.995963
0.995043
0.993939
0.99262
0.991054
0.989202
0.987025
0.984476
0.981509
0.978071
0.974106
0.969557
0.964364
0.958465
0.951797
0.944296
0.935902
0.926553
0.916194
0.904772
0.89224
0.87856
0.8637
0.84764
0.830368
0.811887
0.792209
0.771363
0.749389
0.726343
0.702291
0.677318
0.651516
0.624991
0.597861
0.57025
0.54229
0.514118
0.485883
0.457711
0.429751
0.40214
0.37501
0.348485
0.322683
0.297709
0.273658
0.250611
0.228637
0.207791
0.188114
0.169632
0.15236
0.1363
0.12144
0.10776
0.0952283
0.0838061
0.0734468
0.0640982
0.0557037
0.0482032
0.0415348
0.0356355
0.0304425
0.0258939
0.0219293
0.0184908
0.0155235
0.0129752
0.0107978
0.00894636
0.00737995
0.0060613
0.00495682
0.00403649
0.00327365
0.00264485
0.00212963
0.0017103
0.00137167
0.0011009
0.000887248
0.000721878
0.000597712
0.000509268
0.000452543
0.000424923
0.999575
0.999548
0.999491
0.999402
0.999278
0.999113
0.998899
0.998628
0.99829
0.99787
0.997355
0.996726
0.995963
0.995043
0.993939
0.99262
0.991054
0.989202
0.987025
0.984476
0.981509
0.978071
0.974106
0.969557
0.964364
0.958465
0.951797
0.944296
0.935902
0.926553
0.916194
0.904772
0.89224
0.87856
0.8637
0.84764
0.830368
0.811887
0.792209
0.771363
0.749389
0.726343
0.702291
0.677318
0.651516
0.624991
0.597861
0.57025
0.542289
0.514118
0.485882
0.457711
0.429751
0.40214
0.375009
0.348485
0.322683
0.297709
0.273658
0.250611
0.228637
0.207791
0.188114
0.169632
0.15236
0.1363
0.12144
0.10776
0.0952283
0.0838061
0.0734468
0.0640982
0.0557037
0.0482032
0.0415348
0.0356355
0.0304425
0.0258939
0.0219293
0.0184909
0.0155235
0.0129753
0.0107978
0.00894637
0.00737996
0.00606131
0.00495684
0.0040365
0.00327366
0.00264486
0.00212964
0.00171031
0.00137168
0.00110091
0.000887253
0.000721883
0.000597717
0.000509273
0.000452547
0.000424927
0.999575
0.999548
0.999491
0.999402
0.999278
0.999113
0.998899
0.998628
0.99829
0.99787
0.997355
0.996726
0.995964
0.995043
0.993939
0.99262
0.991054
0.989202
0.987025
0.984477
0.981509
0.978071
0.974106
0.969557
0.964364
0.958465
0.951797
0.944296
0.935902
0.926553
0.916194
0.904772
0.89224
0.87856
0.8637
0.84764
0.830368
0.811887
0.792209
0.771363
0.749389
0.726342
0.702291
0.677317
0.651515
0.624991
0.597861
0.570249
0.542289
0.514118
0.485882
0.457711
0.429751
0.40214
0.375009
0.348485
0.322683
0.297709
0.273658
0.250611
0.228637
0.207791
0.188114
0.169632
0.15236
0.1363
0.12144
0.10776
0.0952284
0.0838062
0.0734469
0.0640984
0.0557038
0.0482033
0.0415349
0.0356356
0.0304426
0.025894
0.0219294
0.0184909
0.0155236
0.0129753
0.0107979
0.00894643
0.00738001
0.00606136
0.00495688
0.00403653
0.00327369
0.00264489
0.00212967
0.00171033
0.0013717
0.00110092
0.000887266
0.000721894
0.000597727
0.000509281
0.000452556
0.000424935
0.999575
0.999548
0.999491
0.999402
0.999278
0.999113
0.998899
0.998628
0.99829
0.99787
0.997355
0.996726
0.995963
0.995043
0.993939
0.99262
0.991054
0.989202
0.987025
0.984476
0.981509
0.978071
0.974106
0.969557
0.964364
0.958465
0.951797
0.944296
0.935902
0.926553
0.916194
0.904772
0.89224
0.87856
0.8637
0.84764
0.830368
0.811886
0.792209
0.771363
0.749389
0.726342
0.702291
0.677317
0.651515
0.624991
0.59786
0.570249
0.542289
0.514118
0.485882
0.457711
0.429751
0.40214
0.375009
0.348485
0.322683
0.297709
0.273658
0.250611
0.228637
0.207791
0.188114
0.169632
0.152361
0.1363
0.12144
0.10776
0.0952287
0.0838065
0.0734472
0.0640986
0.055704
0.0482035
0.0415351
0.0356358
0.0304428
0.0258941
0.0219295
0.0184911
0.0155237
0.0129755
0.010798
0.00894653
0.0073801
0.00606143
0.00495694
0.00403659
0.00327374
0.00264493
0.0021297
0.00171036
0.00137172
0.00110095
0.000887286
0.000721911
0.000597742
0.000509295
0.000452568
0.000424947
0.999575
0.999548
0.999491
0.999402
0.999278
0.999113
0.998899
0.998628
0.99829
0.99787
0.997355
0.996726
0.995963
0.995043
0.993939
0.99262
0.991054
0.989202
0.987025
0.984476
0.981509
0.978071
0.974106
0.969557
0.964364
0.958465
0.951796
0.944296
0.935901
0.926553
0.916193
0.904771
0.89224
0.878559
0.8637
0.847639
0.830368
0.811886
0.792208
0.771362
0.749388
0.726342
0.702291
0.677317
0.651515
0.62499
0.59786
0.570249
0.542289
0.514118
0.485882
0.457711
0.429751
0.40214
0.375009
0.348485
0.322683
0.297709
0.273658
0.250612
0.228638
0.207792
0.188114
0.169633
0.152361
0.136301
0.121441
0.107761
0.0952291
0.0838069
0.0734476
0.064099
0.0557044
0.0482039
0.0415355
0.0356362
0.0304431
0.0258944
0.0219298
0.0184913
0.0155239
0.0129756
0.0107981
0.00894667
0.00738022
0.00606154
0.00495704
0.00403667
0.00327381
0.00264499
0.00212976
0.0017104
0.00137176
0.00110098
0.000887313
0.000721935
0.000597763
0.000509314
0.000452585
0.000424964
0.999575
0.999548
0.999491
0.999402
0.999278
0.999113
0.998899
0.998628
0.99829
0.99787
0.997355
0.996726
0.995963
0.995043
0.993939
0.99262
0.991053
0.989202
0.987024
0.984476
0.981509
0.97807
0.974106
0.969557
0.964364
0.958465
0.951796
0.944296
0.935901
0.926552
0.916193
0.904771
0.892239
0.878559
0.863699
0.847639
0.830367
0.811885
0.792208
0.771362
0.749388
0.726341
0.70229
0.677316
0.651514
0.62499
0.59786
0.570249
0.542289
0.514118
0.485882
0.457711
0.429751
0.40214
0.37501
0.348485
0.322684
0.29771
0.273659
0.250612
0.228638
0.207792
0.188115
0.169633
0.152362
0.136301
0.121441
0.107761
0.0952297
0.0838075
0.0734482
0.0640996
0.0557049
0.0482044
0.0415359
0.0356366
0.0304435
0.0258948
0.0219301
0.0184916
0.0155242
0.0129759
0.0107984
0.00894686
0.00738039
0.00606169
0.00495716
0.00403678
0.0032739
0.00264507
0.00212982
0.00171046
0.00137181
0.00110102
0.000887349
0.000721966
0.000597789
0.000509338
0.000452607
0.000424985
0.999575
0.999548
0.999491
0.999402
0.999278
0.999113
0.998899
0.998628
0.99829
0.99787
0.997355
0.996726
0.995963
0.995043
0.993938
0.99262
0.991053
0.989202
0.987024
0.984476
0.981509
0.97807
0.974105
0.969557
0.964364
0.958464
0.951796
0.944295
0.9359
0.926552
0.916192
0.90477
0.892238
0.878558
0.863698
0.847638
0.830366
0.811885
0.792207
0.771361
0.749387
0.72634
0.702289
0.677316
0.651514
0.62499
0.597859
0.570248
0.542288
0.514117
0.485882
0.457711
0.429751
0.40214
0.37501
0.348486
0.322684
0.29771
0.273659
0.250613
0.228639
0.207793
0.188116
0.169634
0.152362
0.136302
0.121442
0.107762
0.0952305
0.0838083
0.0734489
0.0641003
0.0557056
0.048205
0.0415365
0.0356371
0.030444
0.0258952
0.0219305
0.018492
0.0155245
0.0129762
0.0107986
0.00894709
0.0073806
0.00606187
0.00495732
0.00403692
0.00327402
0.00264517
0.00212991
0.00171053
0.00137187
0.00110107
0.000887393
0.000722003
0.000597823
0.000509367
0.000452635
0.000425011
0.999575
0.999547
0.999491
0.999402
0.999278
0.999113
0.998899
0.998628
0.99829
0.99787
0.997355
0.996726
0.995963
0.995043
0.993938
0.99262
0.991053
0.989202
0.987024
0.984476
0.981508
0.97807
0.974105
0.969556
0.964363
0.958464
0.951795
0.944294
0.9359
0.926551
0.916192
0.904769
0.892237
0.878557
0.863697
0.847637
0.830365
0.811883
0.792206
0.77136
0.749386
0.726339
0.702288
0.677315
0.651513
0.624989
0.597859
0.570248
0.542288
0.514117
0.485882
0.457711
0.429751
0.40214
0.37501
0.348486
0.322685
0.297711
0.27366
0.250614
0.22864
0.207794
0.188117
0.169635
0.152363
0.136303
0.121443
0.107763
0.0952315
0.0838092
0.0734498
0.0641011
0.0557064
0.0482058
0.0415372
0.0356378
0.0304446
0.0258958
0.0219311
0.0184925
0.0155249
0.0129765
0.0107989
0.00894738
0.00738085
0.00606209
0.00495751
0.00403708
0.00327416
0.00264529
0.00213001
0.00171062
0.00137194
0.00110113
0.000887446
0.000722049
0.000597862
0.000509403
0.000452668
0.000425043
0.999575
0.999547
0.999491
0.999402
0.999278
0.999113
0.998899
0.998628
0.99829
0.99787
0.997355