/*--------------------------------*- C++ -*----------------------------------*\
  =========                 |
  \\      /  F ield         | OpenFOAM: The Open Source CFD Toolbox
   \\    /   O peration     | Website:  https://openfoam.org
    \\  /    A nd           | Version:  6
     \\/     M anipulation  |
\*---------------------------------------------------------------------------*/
FoamFile
{
    version     2.0;
    format      ascii;
    class       volScalarField;
    location    "12";
    object      T;
}
// * * * * * * * * * * * * * * * * * * * * * * * * * * * * * * * * * * * * * //

dimensions      [0 0 0 1 0 0 0];

internalField   nonuniform List<scalar> 
5000
(
0.694766
0.694575
0.694192
0.693617
0.692851
0.691895
0.69075
0.689416
0.687895
0.686189
0.684299
0.682227
0.679976
0.677546
0.674942
0.672165
0.669217
0.666103
0.662825
0.659386
0.65579
0.65204
0.64814
0.644093
0.639905
0.635578
0.631117
0.626527
0.621812
0.616977
0.612026
0.606964
0.601797
0.59653
0.591167
0.585714
0.580176
0.57456
0.568869
0.563111
0.55729
0.551413
0.545485
0.539512
0.5335
0.527455
0.521382
0.515289
0.509181
0.503063
0.496943
0.490825
0.484717
0.478624
0.472552
0.466506
0.460494
0.454521
0.448593
0.442716
0.436895
0.431137
0.425447
0.41983
0.414292
0.40884
0.403477
0.398209
0.393042
0.387981
0.38303
0.378195
0.37348
0.36889
0.364429
0.360103
0.355914
0.351868
0.347968
0.344218
0.340621
0.337183
0.333904
0.33079
0.327843
0.325066
0.322462
0.320032
0.317781
0.315709
0.313819
0.312113
0.310592
0.309259
0.308113
0.307157
0.306391
0.305816
0.305433
0.305242
0.694767
0.694576
0.694193
0.693618
0.692852
0.691896
0.690751
0.689417
0.687896
0.68619
0.6843
0.682228
0.679977
0.677547
0.674943
0.672166
0.669218
0.666104
0.662826
0.659387
0.655791
0.652041
0.648141
0.644094
0.639905
0.635579
0.631118
0.626528
0.621813
0.616977
0.612027
0.606965
0.601798
0.59653
0.591167
0.585715
0.580177
0.57456
0.56887
0.563111
0.557291
0.551413
0.545485
0.539512
0.5335
0.527455
0.521383
0.515289
0.509181
0.503063
0.496943
0.490825
0.484717
0.478624
0.472551
0.466506
0.460494
0.454521
0.448593
0.442716
0.436895
0.431137
0.425446
0.419829
0.414292
0.408839
0.403476
0.398209
0.393042
0.38798
0.383029
0.378194
0.373479
0.368889
0.364428
0.360102
0.355913
0.351867
0.347967
0.344217
0.34062
0.337182
0.333903
0.330789
0.327842
0.325065
0.32246
0.320031
0.31778
0.315708
0.313818
0.312112
0.310591
0.309257
0.308112
0.307156
0.30639
0.305815
0.305432
0.305241
0.694768
0.694577
0.694194
0.693619
0.692854
0.691897
0.690752
0.689418
0.687897
0.686191
0.684301
0.682229
0.679978
0.677548
0.674944
0.672167
0.669219
0.666105
0.662827
0.659388
0.655792
0.652041
0.648141
0.644095
0.639906
0.635579
0.631119
0.626528
0.621813
0.616978
0.612027
0.606966
0.601799
0.596531
0.591168
0.585715
0.580177
0.574561
0.56887
0.563112
0.557291
0.551413
0.545485
0.539512
0.5335
0.527455
0.521383
0.515289
0.509181
0.503063
0.496943
0.490825
0.484717
0.478623
0.472551
0.466506
0.460494
0.454521
0.448593
0.442715
0.436895
0.431136
0.425446
0.419829
0.414291
0.408838
0.403476
0.398208
0.393041
0.387979
0.383029
0.378193
0.373478
0.368888
0.364428
0.360101
0.355912
0.351866
0.347966
0.344216
0.340619
0.337181
0.333902
0.330788
0.327841
0.325064
0.322459
0.32003
0.317779
0.315707
0.313817
0.312111
0.31059
0.309256
0.308111
0.307155
0.306389
0.305814
0.305431
0.30524
0.694769
0.694578
0.694195
0.69362
0.692855
0.691898
0.690753
0.689419
0.687898
0.686192
0.684302
0.68223
0.679979
0.677549
0.674945
0.672167
0.66922
0.666106
0.662828
0.659389
0.655792
0.652042
0.648142
0.644096
0.639907
0.63558
0.631119
0.626529
0.621814
0.616979
0.612028
0.606966
0.601799
0.596531
0.591168
0.585715
0.580178
0.574561
0.56887
0.563112
0.557291
0.551414
0.545485
0.539512
0.5335
0.527455
0.521383
0.515289
0.509181
0.503063
0.496943
0.490825
0.484717
0.478623
0.472551
0.466506
0.460494
0.454521
0.448592
0.442715
0.436894
0.431136
0.425445
0.419829
0.414291
0.408838
0.403475
0.398207
0.39304
0.387979
0.383028
0.378193
0.373478
0.368888
0.364427
0.3601
0.355911
0.351865
0.347965
0.344215
0.340619
0.33718
0.333902
0.330787
0.32784
0.325063
0.322459
0.320029
0.317778
0.315706
0.313816
0.31211
0.310589
0.309255
0.30811
0.307154
0.306388
0.305814
0.305431
0.30524
0.69477
0.694579
0.694196
0.693621
0.692856
0.691899
0.690754
0.68942
0.687899
0.686193
0.684303
0.682231
0.67998
0.67755
0.674946
0.672168
0.669221
0.666107
0.662828
0.659389
0.655793
0.652043
0.648143
0.644096
0.639908
0.635581
0.63112
0.62653
0.621815
0.616979
0.612028
0.606967
0.6018
0.596532
0.591169
0.585716
0.580178
0.574561
0.568871
0.563112
0.557291
0.551414
0.545486
0.539513
0.5335
0.527455
0.521383
0.515289
0.509181
0.503063
0.496943
0.490825
0.484717
0.478623
0.472551
0.466506
0.460493
0.45452
0.448592
0.442715
0.436894
0.431135
0.425445
0.419828
0.41429
0.408837
0.403474
0.398207
0.39304
0.387978
0.383027
0.378192
0.373477
0.368887
0.364426
0.360099
0.355911
0.351864
0.347964
0.344214
0.340618
0.337179
0.333901
0.330787
0.327839
0.325062
0.322458
0.320028
0.317777
0.315705
0.313815
0.312109
0.310588
0.309255
0.308109
0.307153
0.306387
0.305813
0.30543
0.305239
0.694771
0.69458
0.694197
0.693622
0.692856
0.6919
0.690755
0.689421
0.6879
0.686194
0.684304
0.682232
0.67998
0.677551
0.674946
0.672169
0.669222
0.666107
0.662829
0.65939
0.655794
0.652044
0.648143
0.644097
0.639908
0.635581
0.63112
0.62653
0.621815
0.61698
0.612029
0.606967
0.6018
0.596532
0.591169
0.585716
0.580178
0.574562
0.568871
0.563112
0.557292
0.551414
0.545486
0.539513
0.5335
0.527455
0.521383
0.515289
0.509181
0.503063
0.496943
0.490825
0.484716
0.478623
0.472551
0.466505
0.460493
0.45452
0.448592
0.442714
0.436894
0.431135
0.425445
0.419828
0.41429
0.408837
0.403474
0.398206
0.393039
0.387978
0.383027
0.378191
0.373476
0.368886
0.364426
0.360099
0.35591
0.351864
0.347963
0.344213
0.340617
0.337178
0.3339
0.330786
0.327839
0.325061
0.322457
0.320028
0.317776
0.315704
0.313814
0.312108
0.310587
0.309254
0.308108
0.307152
0.306387
0.305812
0.305429
0.305238
0.694772
0.694581
0.694198
0.693623
0.692857
0.691901
0.690756
0.689422
0.687901
0.686195
0.684305
0.682233
0.679981
0.677552
0.674947
0.67217
0.669223
0.666108
0.66283
0.659391
0.655795
0.652044
0.648144
0.644098
0.639909
0.635582
0.631121
0.626531
0.621816
0.61698
0.612029
0.606968
0.6018
0.596533
0.59117
0.585716
0.580179
0.574562
0.568871
0.563113
0.557292
0.551414
0.545486
0.539513
0.533501
0.527455
0.521383
0.515289
0.509181
0.503063
0.496943
0.490825
0.484716
0.478623
0.47255
0.466505
0.460493
0.45452
0.448592
0.442714
0.436893
0.431135
0.425444
0.419827
0.41429
0.408837
0.403474
0.398206
0.393039
0.387977
0.383026
0.378191
0.373476
0.368886
0.364425
0.360098
0.355909
0.351863
0.347963
0.344213
0.340616
0.337177
0.333899
0.330785
0.327838
0.325061
0.322456
0.320027
0.317775
0.315703
0.313813
0.312107
0.310587
0.309253
0.308107
0.307151
0.306386
0.305811
0.305428
0.305237
0.694773
0.694582
0.694199
0.693624
0.692858
0.691902
0.690756
0.689423
0.687902
0.686196
0.684306
0.682234
0.679982
0.677553
0.674948
0.672171
0.669223
0.666109
0.662831
0.659392
0.655795
0.652045
0.648145
0.644098
0.639909
0.635582
0.631122
0.626531
0.621816
0.616981
0.61203
0.606968
0.601801
0.596533
0.59117
0.585717
0.580179
0.574562
0.568871
0.563113
0.557292
0.551414
0.545486
0.539513
0.533501
0.527455
0.521383
0.515289
0.509181
0.503063
0.496943
0.490825
0.484716
0.478623
0.47255
0.466505
0.460493
0.45452
0.448591
0.442714
0.436893
0.431134
0.425444
0.419827
0.414289
0.408836
0.403473
0.398205
0.393038
0.387977
0.383026
0.37819
0.373475
0.368885
0.364424
0.360097
0.355909
0.351862
0.347962
0.344212
0.340616
0.337177
0.333899
0.330784
0.327837
0.32506
0.322455
0.320026
0.317774
0.315703
0.313813
0.312107
0.310586
0.309252
0.308107
0.307151
0.306385
0.30581
0.305427
0.305237
0.694773
0.694583
0.694199
0.693625
0.692859
0.691903
0.690757
0.689423
0.687903
0.686196
0.684306
0.682234
0.679983
0.677553
0.674949
0.672171
0.669224
0.66611
0.662831
0.659392
0.655796
0.652046
0.648145
0.644099
0.63991
0.635583
0.631122
0.626532
0.621817
0.616981
0.61203
0.606968
0.601801
0.596533
0.59117
0.585717
0.580179
0.574562
0.568872
0.563113
0.557292
0.551415
0.545486
0.539513
0.533501
0.527455
0.521383
0.515289
0.509181
0.503063
0.496943
0.490825
0.484716
0.478623
0.47255
0.466505
0.460493
0.454519
0.448591
0.442714
0.436893
0.431134
0.425444
0.419827
0.414289
0.408836
0.403473
0.398205
0.393038
0.387976
0.383025
0.37819
0.373475
0.368884
0.364424
0.360097
0.355908
0.351862
0.347961
0.344211
0.340615
0.337176
0.333898
0.330784
0.327836
0.325059
0.322455
0.320025
0.317774
0.315702
0.313812
0.312106
0.310585
0.309251
0.308106
0.30715
0.306384
0.30581
0.305427
0.305236
0.694774
0.694583
0.6942
0.693625
0.69286
0.691903
0.690758
0.689424
0.687903
0.686197
0.684307
0.682235
0.679983
0.677554
0.674949
0.672172
0.669224
0.66611
0.662832
0.659393
0.655796
0.652046
0.648146
0.644099
0.63991
0.635583
0.631122
0.626532
0.621817
0.616981
0.61203
0.606969
0.601801
0.596534
0.591171
0.585717
0.58018
0.574563
0.568872
0.563113
0.557292
0.551415
0.545486
0.539513
0.533501
0.527456
0.521383
0.515289
0.509181
0.503063
0.496942
0.490825
0.484716
0.478622
0.47255
0.466505
0.460492
0.454519
0.448591
0.442713
0.436892
0.431134
0.425443
0.419826
0.414288
0.408835
0.403472
0.398205
0.393037
0.387976
0.383025
0.378189
0.373474
0.368884
0.364423
0.360096
0.355908
0.351861
0.347961
0.344211
0.340614
0.337175
0.333897
0.330783
0.327836
0.325059
0.322454
0.320025
0.317773
0.315701
0.313811
0.312105
0.310584
0.309251
0.308105
0.307149
0.306384
0.305809
0.305426
0.305235
0.694775
0.694584
0.694201
0.693626
0.69286
0.691904
0.690758
0.689425
0.687904
0.686198
0.684308
0.682236
0.679984
0.677554
0.67495
0.672172
0.669225
0.666111
0.662832
0.659393
0.655797
0.652047
0.648146
0.6441
0.639911
0.635584
0.631123
0.626533
0.621817
0.616982
0.612031
0.606969
0.601802
0.596534
0.591171
0.585718
0.58018
0.574563
0.568872
0.563113
0.557292
0.551415
0.545487
0.539513
0.533501
0.527456
0.521383
0.515289
0.509181
0.503063
0.496942
0.490825
0.484716
0.478622
0.47255
0.466504
0.460492
0.454519
0.448591
0.442713
0.436892
0.431134
0.425443
0.419826
0.414288
0.408835
0.403472
0.398204
0.393037
0.387975
0.383024
0.378189
0.373474
0.368884
0.364423
0.360096
0.355907
0.351861
0.34796
0.34421
0.340614
0.337175
0.333897
0.330782
0.327835
0.325058
0.322453
0.320024
0.317772
0.315701
0.313811
0.312105
0.310584
0.30925
0.308105
0.307149
0.306383
0.305808
0.305426
0.305235
0.694775
0.694585
0.694201
0.693627
0.692861
0.691905
0.690759
0.689425
0.687904
0.686198
0.684308
0.682236
0.679984
0.677555
0.67495
0.672173
0.669226
0.666111
0.662833
0.659394
0.655797
0.652047
0.648147
0.6441
0.639911
0.635584
0.631123
0.626533
0.621818
0.616982
0.612031
0.606969
0.601802
0.596534
0.591171
0.585718
0.58018
0.574563
0.568872
0.563114
0.557293
0.551415
0.545487
0.539513
0.533501
0.527456
0.521383
0.515289
0.509181
0.503063
0.496942
0.490825
0.484716
0.478622
0.47255
0.466504
0.460492
0.454519
0.44859
0.442713
0.436892
0.431133
0.425443
0.419826
0.414288
0.408835
0.403472
0.398204
0.393037
0.387975
0.383024
0.378189
0.373473
0.368883
0.364422
0.360095
0.355907
0.35186
0.34796
0.34421
0.340613
0.337174
0.333896
0.330782
0.327835
0.325057
0.322453
0.320023
0.317772
0.3157
0.31381
0.312104
0.310583
0.30925
0.308104
0.307148
0.306383
0.305808
0.305425
0.305234
0.694776
0.694585
0.694202
0.693627
0.692861
0.691905
0.69076
0.689426
0.687905
0.686199
0.684309
0.682237
0.679985
0.677555
0.674951
0.672173
0.669226
0.666112
0.662833
0.659394
0.655798
0.652047
0.648147
0.6441
0.639912
0.635585
0.631124
0.626533
0.621818
0.616982
0.612031
0.60697
0.601802
0.596534
0.591171
0.585718
0.58018
0.574563
0.568872
0.563114
0.557293
0.551415
0.545487
0.539513
0.533501
0.527456
0.521383
0.515289
0.509181
0.503063
0.496942
0.490825
0.484716
0.478622
0.47255
0.466504
0.460492
0.454519
0.44859
0.442713
0.436892
0.431133
0.425442
0.419825
0.414288
0.408834
0.403471
0.398204
0.393036
0.387975
0.383024
0.378188
0.373473
0.368883
0.364422
0.360095
0.355906
0.35186
0.347959
0.344209
0.340613
0.337174
0.333896
0.330781
0.327834
0.325057
0.322452
0.320023
0.317771
0.315699
0.31381
0.312103
0.310583
0.309249
0.308104
0.307148
0.306382
0.305807
0.305425
0.305234
0.694777
0.694586
0.694202
0.693628
0.692862
0.691906
0.69076
0.689426
0.687905
0.686199
0.684309
0.682237
0.679985
0.677556
0.674951
0.672174
0.669226
0.666112
0.662834
0.659395
0.655798
0.652048
0.648147
0.644101
0.639912
0.635585
0.631124
0.626534
0.621818
0.616983
0.612032
0.60697
0.601803
0.596535
0.591172
0.585718
0.58018
0.574563
0.568873
0.563114
0.557293
0.551415
0.545487
0.539513
0.533501
0.527456
0.521383
0.515289
0.509181
0.503063
0.496942
0.490824
0.484716
0.478622
0.47255
0.466504
0.460492
0.454518
0.44859
0.442712
0.436891
0.431133
0.425442
0.419825
0.414287
0.408834
0.403471
0.398203
0.393036
0.387974
0.383023
0.378188
0.373473
0.368882
0.364422
0.360095
0.355906
0.351859
0.347959
0.344209
0.340612
0.337173
0.333895
0.330781
0.327834
0.325056
0.322452
0.320022
0.317771
0.315699
0.313809
0.312103
0.310582
0.309249
0.308103
0.307147
0.306382
0.305807
0.305424
0.305233
0.694777
0.694586
0.694203
0.693628
0.692862
0.691906
0.690761
0.689427
0.687906
0.6862
0.68431
0.682238
0.679986
0.677556
0.674952
0.672174
0.669227
0.666112
0.662834
0.659395
0.655798
0.652048
0.648148
0.644101
0.639912
0.635585
0.631124
0.626534
0.621819
0.616983
0.612032
0.60697
0.601803
0.596535
0.591172
0.585718
0.580181
0.574563
0.568873
0.563114
0.557293
0.551415
0.545487
0.539514
0.533501
0.527456
0.521383
0.515289
0.509181
0.503063
0.496942
0.490824
0.484716
0.478622
0.472549
0.466504
0.460492
0.454518
0.44859
0.442712
0.436891
0.431133
0.425442
0.419825
0.414287
0.408834
0.403471
0.398203
0.393036
0.387974
0.383023
0.378187
0.373472
0.368882
0.364421
0.360094
0.355905
0.351859
0.347959
0.344208
0.340612
0.337173
0.333895
0.330781
0.327833
0.325056
0.322451
0.320022
0.31777
0.315699
0.313809
0.312103
0.310582
0.309248
0.308103
0.307147
0.306381
0.305807
0.305424
0.305233
0.694777
0.694586
0.694203
0.693629
0.692863
0.691907
0.690761
0.689427
0.687906
0.6862
0.68431
0.682238
0.679986
0.677557
0.674952
0.672175
0.669227
0.666113
0.662834
0.659395
0.655799
0.652048
0.648148
0.644101
0.639912
0.635585
0.631124
0.626534
0.621819
0.616983
0.612032
0.60697
0.601803
0.596535
0.591172
0.585719
0.580181
0.574564
0.568873
0.563114
0.557293
0.551415
0.545487
0.539514
0.533501
0.527456
0.521383
0.515289
0.509181
0.503063
0.496942
0.490824
0.484716
0.478622
0.472549
0.466504
0.460492
0.454518
0.44859
0.442712
0.436891
0.431132
0.425442
0.419825
0.414287
0.408834
0.403471
0.398203
0.393035
0.387974
0.383023
0.378187
0.373472
0.368882
0.364421
0.360094
0.355905
0.351859
0.347958
0.344208
0.340612
0.337173
0.333894
0.33078
0.327833
0.325056
0.322451
0.320022
0.31777
0.315698
0.313808
0.312102
0.310582
0.309248
0.308102
0.307146
0.306381
0.305806
0.305423
0.305232
0.694778
0.694587
0.694204
0.693629
0.692863
0.691907
0.690761
0.689427
0.687907
0.6862
0.68431
0.682238
0.679987
0.677557
0.674952
0.672175
0.669227
0.666113
0.662835
0.659395
0.655799
0.652049
0.648148
0.644102
0.639913
0.635586
0.631125
0.626534
0.621819
0.616983
0.612032
0.606971
0.601803
0.596535
0.591172
0.585719
0.580181
0.574564
0.568873
0.563114
0.557293
0.551415
0.545487
0.539514
0.533501
0.527456
0.521383
0.515289
0.509181
0.503063
0.496942
0.490824
0.484715
0.478622
0.472549
0.466504
0.460491
0.454518
0.44859
0.442712
0.436891
0.431132
0.425442
0.419825
0.414287
0.408833
0.40347
0.398202
0.393035
0.387974
0.383022
0.378187
0.373472
0.368881
0.364421
0.360094
0.355905
0.351858
0.347958
0.344208
0.340611
0.337172
0.333894
0.33078
0.327833
0.325055
0.322451
0.320021
0.31777
0.315698
0.313808
0.312102
0.310581
0.309248
0.308102
0.307146
0.30638
0.305806
0.305423
0.305232
0.694778
0.694587
0.694204
0.693629
0.692863
0.691907
0.690762
0.689428
0.687907
0.686201
0.684311
0.682239
0.679987
0.677557
0.674953
0.672175
0.669228
0.666113
0.662835
0.659396
0.655799
0.652049
0.648149
0.644102
0.639913
0.635586
0.631125
0.626534
0.621819
0.616984
0.612032
0.606971
0.601803
0.596535
0.591172
0.585719
0.580181
0.574564
0.568873
0.563114
0.557293
0.551415
0.545487
0.539514
0.533501
0.527456
0.521383
0.515289
0.509181
0.503063
0.496942
0.490824
0.484715
0.478622
0.472549
0.466504
0.460491
0.454518
0.44859
0.442712
0.436891
0.431132
0.425441
0.419824
0.414287
0.408833
0.40347
0.398202
0.393035
0.387973
0.383022
0.378187
0.373471
0.368881
0.36442
0.360093
0.355905
0.351858
0.347958
0.344208
0.340611
0.337172
0.333894
0.33078
0.327832
0.325055
0.32245
0.320021
0.317769
0.315698
0.313808
0.312102
0.310581
0.309247
0.308102
0.307146
0.30638
0.305806
0.305423
0.305232
0.694778
0.694587
0.694204
0.69363
0.692864
0.691907
0.690762
0.689428
0.687907
0.686201
0.684311
0.682239
0.679987
0.677558
0.674953
0.672175
0.669228
0.666113
0.662835
0.659396
0.655799
0.652049
0.648149
0.644102
0.639913
0.635586
0.631125
0.626535
0.621819
0.616984
0.612033
0.606971
0.601803
0.596535
0.591172
0.585719
0.580181
0.574564
0.568873
0.563114
0.557293
0.551416
0.545487
0.539514
0.533501
0.527456
0.521383
0.515289
0.509181
0.503063
0.496942
0.490824
0.484715
0.478622
0.472549
0.466504
0.460491
0.454518
0.448589
0.442712
0.436891
0.431132
0.425441
0.419824
0.414286
0.408833
0.40347
0.398202
0.393035
0.387973
0.383022
0.378187
0.373471
0.368881
0.36442
0.360093
0.355904
0.351858
0.347958
0.344207
0.340611
0.337172
0.333894
0.330779
0.327832
0.325055
0.32245
0.320021
0.317769
0.315697
0.313807
0.312101
0.310581
0.309247
0.308102
0.307146
0.30638
0.305805
0.305422
0.305232
0.694779
0.694588
0.694204
0.69363
0.692864
0.691908
0.690762
0.689428
0.687907
0.686201
0.684311
0.682239
0.679987
0.677558
0.674953
0.672175
0.669228
0.666114
0.662835
0.659396
0.6558
0.652049
0.648149
0.644102
0.639913
0.635586
0.631125
0.626535
0.621819
0.616984
0.612033
0.606971
0.601803
0.596536
0.591172
0.585719
0.580181
0.574564
0.568873
0.563114
0.557293
0.551416
0.545487
0.539514
0.533501
0.527456
0.521383
0.515289
0.509181
0.503063
0.496942
0.490824
0.484715
0.478622
0.472549
0.466504
0.460491
0.454518
0.448589
0.442712
0.436891
0.431132
0.425441
0.419824
0.414286
0.408833
0.40347
0.398202
0.393035
0.387973
0.383022
0.378186
0.373471
0.368881
0.36442
0.360093
0.355904
0.351858
0.347957
0.344207
0.340611
0.337172
0.333893
0.330779
0.327832
0.325055
0.32245
0.320021
0.317769
0.315697
0.313807
0.312101
0.31058
0.309247
0.308101
0.307145
0.30638
0.305805
0.305422
0.305231
0.694779
0.694588
0.694205
0.69363
0.692864
0.691908
0.690762
0.689428
0.687908
0.686201
0.684311
0.682239
0.679987
0.677558
0.674953
0.672176
0.669228
0.666114
0.662835
0.659396
0.6558
0.652049
0.648149
0.644102
0.639913
0.635586
0.631125
0.626535
0.621819
0.616984
0.612033
0.606971
0.601803
0.596536
0.591172
0.585719
0.580181
0.574564
0.568873
0.563114
0.557293
0.551416
0.545487
0.539514
0.533501
0.527456
0.521383
0.515289
0.509181
0.503063
0.496942
0.490824
0.484715
0.478622
0.472549
0.466503
0.460491
0.454518
0.448589
0.442712
0.436891
0.431132
0.425441
0.419824
0.414286
0.408833
0.40347
0.398202
0.393035
0.387973
0.383022
0.378186
0.373471
0.368881
0.36442
0.360093
0.355904
0.351857
0.347957
0.344207
0.340611
0.337172
0.333893
0.330779
0.327832
0.325054
0.32245
0.320021
0.317769
0.315697
0.313807
0.312101
0.31058
0.309247
0.308101
0.307145
0.30638
0.305805
0.305422
0.305231
0.694779
0.694588
0.694205
0.69363
0.692864
0.691908
0.690762
0.689428
0.687908
0.686201
0.684311
0.682239
0.679987
0.677558
0.674953
0.672176
0.669228
0.666114
0.662835
0.659396
0.6558
0.652049
0.648149
0.644102
0.639913
0.635586
0.631125
0.626535
0.62182
0.616984
0.612033
0.606971
0.601804
0.596536
0.591172
0.585719
0.580181
0.574564
0.568873
0.563114
0.557293
0.551416
0.545487
0.539514
0.533501
0.527456
0.521383
0.515289
0.509181
0.503063
0.496942
0.490824
0.484715
0.478622
0.472549
0.466503
0.460491
0.454518
0.448589
0.442712
0.43689
0.431132
0.425441
0.419824
0.414286
0.408833
0.40347
0.398202
0.393034
0.387973
0.383022
0.378186
0.373471
0.368881
0.36442
0.360093
0.355904
0.351857
0.347957
0.344207
0.340611
0.337172
0.333893
0.330779
0.327832
0.325054
0.32245
0.32002
0.317769
0.315697
0.313807
0.312101
0.31058
0.309247
0.308101
0.307145
0.306379
0.305805
0.305422
0.305231
0.694779
0.694588
0.694205
0.69363
0.692864
0.691908
0.690762
0.689429
0.687908
0.686201
0.684311
0.682239
0.679987
0.677558
0.674953
0.672176
0.669228
0.666114
0.662835
0.659396
0.6558
0.652049
0.648149
0.644102
0.639913
0.635586
0.631125
0.626535
0.62182
0.616984
0.612033
0.606971
0.601804
0.596536
0.591172
0.585719
0.580181
0.574564
0.568873
0.563114
0.557293
0.551416
0.545487
0.539514
0.533501
0.527456
0.521383
0.515289
0.50918
0.503063
0.496942
0.490824
0.484715
0.478621
0.472549
0.466503
0.460491
0.454518
0.448589
0.442711
0.43689
0.431132
0.425441
0.419824
0.414286
0.408833
0.40347
0.398202
0.393034
0.387973
0.383022
0.378186
0.373471
0.368881
0.36442
0.360093
0.355904
0.351857
0.347957
0.344207
0.34061
0.337171
0.333893
0.330779
0.327832
0.325054
0.32245
0.32002
0.317769
0.315697
0.313807
0.312101
0.31058
0.309247
0.308101
0.307145
0.306379
0.305805
0.305422
0.305231
0.694779
0.694588
0.694205
0.69363
0.692864
0.691908
0.690762
0.689429
0.687908
0.686201
0.684311
0.682239
0.679987
0.677558
0.674953
0.672176
0.669228
0.666114
0.662835
0.659396
0.6558
0.652049
0.648149
0.644102
0.639913
0.635586
0.631125
0.626535
0.621819
0.616984
0.612033
0.606971
0.601803
0.596536
0.591172
0.585719
0.580181
0.574564
0.568873
0.563114
0.557293
0.551415
0.545487
0.539514
0.533501
0.527456
0.521383
0.515289
0.50918
0.503063
0.496942
0.490824
0.484715
0.478621
0.472549
0.466503
0.460491
0.454518
0.448589
0.442711
0.43689
0.431132
0.425441
0.419824
0.414286
0.408833
0.40347
0.398202
0.393034
0.387973
0.383022
0.378186
0.373471
0.368881
0.36442
0.360093
0.355904
0.351857
0.347957
0.344207
0.34061
0.337171
0.333893
0.330779
0.327832
0.325054
0.32245
0.32002
0.317769
0.315697
0.313807
0.312101
0.31058
0.309247
0.308101
0.307145
0.306379
0.305805
0.305422
0.305231
0.694779
0.694588
0.694205
0.69363
0.692864
0.691908
0.690762
0.689428
0.687908
0.686201
0.684311
0.682239
0.679987
0.677558
0.674953
0.672176
0.669228
0.666114
0.662835
0.659396
0.6558
0.652049
0.648149
0.644102
0.639913
0.635586
0.631125
0.626535
0.621819
0.616984
0.612033
0.606971
0.601803
0.596535
0.591172
0.585719
0.580181
0.574564
0.568873
0.563114
0.557293
0.551415
0.545487
0.539514
0.533501
0.527456
0.521383
0.515289
0.50918
0.503062
0.496942
0.490824
0.484715
0.478621
0.472549
0.466503
0.460491
0.454518
0.448589
0.442711
0.43689
0.431132
0.425441
0.419824
0.414286
0.408833
0.40347
0.398202
0.393034
0.387973
0.383022
0.378186
0.373471
0.368881
0.36442
0.360093
0.355904
0.351857
0.347957
0.344207
0.34061
0.337171
0.333893
0.330779
0.327832
0.325054
0.32245
0.32002
0.317769
0.315697
0.313807
0.312101
0.31058
0.309247
0.308101
0.307145
0.306379
0.305805
0.305422
0.305231
0.694779
0.694588
0.694205
0.69363
0.692864
0.691908
0.690762
0.689428
0.687908
0.686201
0.684311
0.682239
0.679987
0.677558
0.674953
0.672176
0.669228
0.666114
0.662835
0.659396
0.6558
0.652049
0.648149
0.644102
0.639913
0.635586
0.631125
0.626535
0.621819
0.616984
0.612033
0.606971
0.601803
0.596535
0.591172
0.585719
0.580181
0.574564
0.568873
0.563114
0.557293
0.551415
0.545487
0.539513
0.533501
0.527456
0.521383
0.515289
0.50918
0.503062
0.496942
0.490824
0.484715
0.478621
0.472549
0.466503
0.460491
0.454518
0.448589
0.442711
0.43689
0.431132
0.425441
0.419824
0.414286
0.408833
0.40347
0.398202
0.393034
0.387973
0.383022
0.378186
0.373471
0.368881
0.36442
0.360093
0.355904
0.351857
0.347957
0.344207
0.340611
0.337172
0.333893
0.330779
0.327832
0.325054
0.32245
0.32002
0.317769
0.315697
0.313807
0.312101
0.31058
0.309247
0.308101
0.307145
0.30638
0.305805
0.305422
0.305231
0.694779
0.694588
0.694205
0.69363
0.692864
0.691908
0.690762
0.689428
0.687907
0.686201
0.684311
0.682239
0.679987
0.677558
0.674953
0.672175
0.669228
0.666114
0.662835
0.659396
0.655799
0.652049
0.648149
0.644102
0.639913
0.635586
0.631125
0.626535
0.621819
0.616984
0.612032
0.606971
0.601803
0.596535
0.591172
0.585719
0.580181
0.574564
0.568873
0.563114
0.557293
0.551415
0.545487
0.539513
0.533501
0.527456
0.521383
0.515289
0.50918
0.503062
0.496942
0.490824
0.484715
0.478621
0.472549
0.466503
0.460491
0.454518
0.448589
0.442711
0.43689
0.431132
0.425441
0.419824
0.414286
0.408833
0.40347
0.398202
0.393034
0.387973
0.383022
0.378186
0.373471
0.368881
0.36442
0.360093
0.355904
0.351857
0.347957
0.344207
0.340611
0.337172
0.333893
0.330779
0.327832
0.325055
0.32245
0.320021
0.317769
0.315697
0.313807
0.312101
0.310581
0.309247
0.308101
0.307145
0.30638
0.305805
0.305422
0.305231
0.694778
0.694587
0.694204
0.69363
0.692864
0.691908
0.690762
0.689428
0.687907
0.686201
0.684311
0.682239
0.679987
0.677558
0.674953
0.672175
0.669228
0.666113
0.662835
0.659396
0.655799
0.652049
0.648149
0.644102
0.639913
0.635586
0.631125
0.626534
0.621819
0.616983
0.612032
0.606971
0.601803
0.596535
0.591172
0.585719
0.580181
0.574564
0.568873
0.563114
0.557293
0.551415
0.545487
0.539513
0.533501
0.527455
0.521383
0.515289
0.50918
0.503062
0.496942
0.490824
0.484715
0.478621
0.472549
0.466503
0.460491
0.454518
0.448589
0.442711
0.43689
0.431132
0.425441
0.419824
0.414286
0.408833
0.40347
0.398202
0.393035
0.387973
0.383022
0.378186
0.373471
0.368881
0.36442
0.360093
0.355904
0.351858
0.347957
0.344207
0.340611
0.337172
0.333894
0.330779
0.327832
0.325055
0.32245
0.320021
0.317769
0.315697
0.313807
0.312101
0.310581
0.309247
0.308102
0.307146
0.30638
0.305805
0.305422
0.305232
0.694778
0.694587
0.694204
0.693629
0.692864
0.691907
0.690762
0.689428
0.687907
0.686201
0.684311
0.682239
0.679987
0.677557
0.674953
0.672175
0.669228
0.666113
0.662835
0.659396
0.655799
0.652049
0.648148
0.644102
0.639913
0.635586
0.631125
0.626534
0.621819
0.616983
0.612032
0.60697
0.601803
0.596535
0.591172
0.585718
0.580181
0.574563
0.568873
0.563114
0.557293
0.551415
0.545487
0.539513
0.533501
0.527455
0.521383
0.515289
0.50918
0.503062
0.496942
0.490824
0.484715
0.478621
0.472549
0.466503
0.460491
0.454518
0.448589
0.442712
0.43689
0.431132
0.425441
0.419824
0.414286
0.408833
0.40347
0.398202
0.393035
0.387973
0.383022
0.378186
0.373471
0.368881
0.36442
0.360093
0.355904
0.351858
0.347958
0.344207
0.340611
0.337172
0.333894
0.330779
0.327832
0.325055
0.32245
0.320021
0.317769
0.315698
0.313808
0.312102
0.310581
0.309247
0.308102
0.307146
0.30638
0.305806
0.305423
0.305232
0.694778
0.694587
0.694204
0.693629
0.692863
0.691907
0.690761
0.689428
0.687907
0.6862
0.68431
0.682238
0.679987
0.677557
0.674952
0.672175
0.669227
0.666113
0.662835
0.659395
0.655799
0.652049
0.648148
0.644101
0.639912
0.635585
0.631124
0.626534
0.621819
0.616983
0.612032
0.60697
0.601803
0.596535
0.591172
0.585718
0.58018
0.574563
0.568873
0.563114
0.557293
0.551415
0.545487
0.539513
0.533501
0.527455
0.521383
0.515289
0.50918
0.503062
0.496942
0.490824
0.484715
0.478621
0.472549
0.466503
0.460491
0.454518
0.448589
0.442712
0.436891
0.431132
0.425441
0.419824
0.414286
0.408833
0.40347
0.398202
0.393035
0.387973
0.383022
0.378187
0.373471
0.368881
0.36442
0.360093
0.355905
0.351858
0.347958
0.344208
0.340611
0.337172
0.333894
0.33078
0.327832
0.325055
0.322451
0.320021
0.31777
0.315698
0.313808
0.312102
0.310581
0.309248
0.308102
0.307146
0.30638
0.305806
0.305423
0.305232
0.694778
0.694587
0.694204
0.693629
0.692863
0.691907
0.690761
0.689427
0.687906
0.6862
0.68431
0.682238
0.679986
0.677557
0.674952
0.672174
0.669227
0.666113
0.662834
0.659395
0.655799
0.652048
0.648148
0.644101
0.639912
0.635585
0.631124
0.626534
0.621818
0.616983
0.612032
0.60697
0.601803
0.596535
0.591171
0.585718
0.58018
0.574563
0.568872
0.563114
0.557293
0.551415
0.545486
0.539513
0.533501
0.527455
0.521383
0.515289
0.50918
0.503062
0.496942
0.490824
0.484715
0.478621
0.472549
0.466503
0.460491
0.454518
0.448589
0.442712
0.436891
0.431132
0.425441
0.419824
0.414286
0.408833
0.40347
0.398202
0.393035
0.387973
0.383022
0.378187
0.373472
0.368881
0.364421
0.360094
0.355905
0.351858
0.347958
0.344208
0.340611
0.337173
0.333894
0.33078
0.327833
0.325056
0.322451
0.320022
0.31777
0.315698
0.313808
0.312102
0.310582
0.309248
0.308102
0.307146
0.306381
0.305806
0.305423
0.305232
0.694777
0.694586
0.694203
0.693628
0.692863
0.691906
0.690761
0.689427
0.687906
0.6862
0.68431
0.682238
0.679986
0.677556
0.674952
0.672174
0.669227
0.666112
0.662834
0.659395
0.655798
0.652048
0.648148
0.644101
0.639912
0.635585
0.631124
0.626534
0.621818
0.616983
0.612031
0.60697
0.601802
0.596534
0.591171
0.585718
0.58018
0.574563
0.568872
0.563113
0.557292
0.551415
0.545486
0.539513
0.533501
0.527455
0.521383
0.515289
0.50918
0.503062
0.496942
0.490824
0.484715
0.478621
0.472549
0.466503
0.460491
0.454518
0.448589
0.442712
0.436891
0.431132
0.425441
0.419824
0.414287
0.408833
0.40347
0.398202
0.393035
0.387974
0.383023
0.378187
0.373472
0.368882
0.364421
0.360094
0.355905
0.351859
0.347958
0.344208
0.340612
0.337173
0.333895
0.33078
0.327833
0.325056
0.322451
0.320022
0.31777
0.315699
0.313809
0.312103
0.310582
0.309248
0.308103
0.307147
0.306381
0.305807
0.305424
0.305233
0.694777
0.694586
0.694203
0.693628
0.692862
0.691906
0.69076
0.689426
0.687906
0.686199
0.684309
0.682237
0.679985
0.677556
0.674951
0.672174
0.669226
0.666112
0.662833
0.659394
0.655798
0.652048
0.648147
0.6441
0.639912
0.635585
0.631124
0.626533
0.621818
0.616982
0.612031
0.606969
0.601802
0.596534
0.591171
0.585718
0.58018
0.574563
0.568872
0.563113
0.557292
0.551415
0.545486
0.539513
0.5335
0.527455
0.521382
0.515289
0.50918
0.503062
0.496942
0.490824
0.484715
0.478621
0.472549
0.466503
0.460491
0.454518
0.448589
0.442712
0.436891
0.431132
0.425442
0.419825
0.414287
0.408834
0.40347
0.398203
0.393035
0.387974
0.383023
0.378187
0.373472
0.368882
0.364421
0.360094
0.355905
0.351859
0.347959
0.344208
0.340612
0.337173
0.333895
0.330781
0.327833
0.325056
0.322452
0.320022
0.317771
0.315699
0.313809